 Entering Gaussian System, Link 0=g09
 Initial command:
 /home/wendao/install/g09/l1.exe "/home/wendao/scratch/Gau-26002.inp" -scrdir="/home/wendao/scratch/"
 Entering Link 1 = /home/wendao/install/g09/l1.exe PID=     26003.
  
 Copyright (c) 1988,1990,1992,1993,1995,1998,2003,2009,2013,
            Gaussian, Inc.  All Rights Reserved.
  
 This is part of the Gaussian(R) 09 program.  It is based on
 the Gaussian(R) 03 system (copyright 2003, Gaussian, Inc.),
 the Gaussian(R) 98 system (copyright 1998, Gaussian, Inc.),
 the Gaussian(R) 94 system (copyright 1995, Gaussian, Inc.),
 the Gaussian 92(TM) system (copyright 1992, Gaussian, Inc.),
 the Gaussian 90(TM) system (copyright 1990, Gaussian, Inc.),
 the Gaussian 88(TM) system (copyright 1988, Gaussian, Inc.),
 the Gaussian 86(TM) system (copyright 1986, Carnegie Mellon
 University), and the Gaussian 82(TM) system (copyright 1983,
 Carnegie Mellon University). Gaussian is a federally registered
 trademark of Gaussian, Inc.
  
 This software contains proprietary and confidential information,
 including trade secrets, belonging to Gaussian, Inc.
  
 This software is provided under written license and may be
 used, copied, transmitted, or stored only in accord with that
 written license.
  
 The following legend is applicable only to US Government
 contracts under FAR:
  
                    RESTRICTED RIGHTS LEGEND
  
 Use, reproduction and disclosure by the US Government is
 subject to restrictions as set forth in subparagraphs (a)
 and (c) of the Commercial Computer Software - Restricted
 Rights clause in FAR 52.227-19.
  
 Gaussian, Inc.
 340 Quinnipiac St., Bldg. 40, Wallingford CT 06492
  
  
 ---------------------------------------------------------------
 Warning -- This program may not be used in any manner that
 competes with the business of Gaussian, Inc. or will provide
 assistance to any competitor of Gaussian, Inc.  The licensee
 of this program is prohibited from giving any competitor of
 Gaussian, Inc. access to this program.  By using this program,
 the user acknowledges that Gaussian, Inc. is engaged in the
 business of creating and licensing software in the field of
 computational chemistry and represents and warrants to the
 licensee that it is not a competitor of Gaussian, Inc. and that
 it will not use this program in any manner prohibited above.
 ---------------------------------------------------------------
  

 Cite this work as:
 Gaussian 09, Revision D.01,
 M. J. Frisch, G. W. Trucks, H. B. Schlegel, G. E. Scuseria, 
 M. A. Robb, J. R. Cheeseman, G. Scalmani, V. Barone, B. Mennucci, 
 G. A. Petersson, H. Nakatsuji, M. Caricato, X. Li, H. P. Hratchian, 
 A. F. Izmaylov, J. Bloino, G. Zheng, J. L. Sonnenberg, M. Hada, 
 M. Ehara, K. Toyota, R. Fukuda, J. Hasegawa, M. Ishida, T. Nakajima, 
 Y. Honda, O. Kitao, H. Nakai, T. Vreven, J. A. Montgomery, Jr., 
 J. E. Peralta, F. Ogliaro, M. Bearpark, J. J. Heyd, E. Brothers, 
 K. N. Kudin, V. N. Staroverov, T. Keith, R. Kobayashi, J. Normand, 
 K. Raghavachari, A. Rendell, J. C. Burant, S. S. Iyengar, J. Tomasi, 
 M. Cossi, N. Rega, J. M. Millam, M. Klene, J. E. Knox, J. B. Cross, 
 V. Bakken, C. Adamo, J. Jaramillo, R. Gomperts, R. E. Stratmann, 
 O. Yazyev, A. J. Austin, R. Cammi, C. Pomelli, J. W. Ochterski, 
 R. L. Martin, K. Morokuma, V. G. Zakrzewski, G. A. Voth, 
 P. Salvador, J. J. Dannenberg, S. Dapprich, A. D. Daniels, 
 O. Farkas, J. B. Foresman, J. V. Ortiz, J. Cioslowski, 
 and D. J. Fox, Gaussian, Inc., Wallingford CT, 2013.
 
 ******************************************
 Gaussian 09:  ES64L-G09RevD.01 24-Apr-2013
                19-Aug-2021 
 ******************************************
 %NProcShared=8
 Will use up to    8 processors via shared memory.
 ----------------------------------------------------------------------
 #p HF/6-31G* SCF Pop=(mk,readradii) iop(6/33=2) iop(6/42=6) iop(6/50=1
 )
 ----------------------------------------------------------------------
 1/38=1/1;
 2/12=2,17=6,18=5,40=1/2;
 3/5=1,6=6,7=1,11=9,16=1,25=1,30=1/1,2,3;
 4//1;
 5/5=2,38=5/2;
 6/7=2,8=2,9=2,10=2,15=8,20=101,28=1,33=2,42=6,50=1/1,2;
 99/5=1,9=1/99;
 Leave Link    1 at Thu Aug 19 19:21:36 2021, MaxMem=           0 cpu:         0.4
 (Enter /home/wendao/install/g09/l101.exe)
 ---
 HEM
 ---
 Symbolic Z-matrix:
 Charge =  0 Multiplicity = 3
 C                     80.29643   171.29561   78.16469 
 C                     83.09152   172.59377   87.51848 
 C                     83.33409   164.73983   86.2316 
 C                     80.45132   165.92346   78.82975 
 N                     81.44484   170.50105   81.6112 
 C                     81.3      171.1984   77.06026 
 C                     82.64658   173.65282   88.18689 
 C                     83.70136   163.80899   85.37556 
 C                     78.9573   166.02523   78.63362 
 N                     82.3426   170.89372   84.32302 
 C                     80.68341   171.322   75.69463 
 C                     78.49224   165.61596   77.27019 
 N                     81.64624   167.66258   81.93196 
 C                     80.98091   168.87182   79.8798 
 C                     81.84792   172.64566   82.65426 
 C                     82.95388   169.76938   86.34528 
 C                     82.28166   165.90552   83.41385 
 C                     80.90397   173.80664   80.0017 
 C                     82.35824   174.54469   85.1537 
 C                     83.69671   167.22013   88.08595 
 C                     81.34556   164.06987   81.21553 
 C                     81.08066   170.13373   80.3465 
 C                     82.20554   172.19307   83.97991 
 C                     82.9157   168.37748   85.88174 
 C                     81.80377   166.36826   82.25577 
 O                     79.48658   171.14521   75.52807 
 O                     77.35919   165.1874   77.11141 
 C                     80.83661   171.2659   79.57094 
 C                     82.43674   173.0353   85.08016 
 C                     83.24674   167.25054   86.6516 
 C                     81.38974   165.55049   81.20752 
 O                     81.44642   171.71669   74.65925 
 O                     79.28673   165.8086   76.20437 
 C                     81.07313   172.36178   80.38167 
 C                     82.75778   172.20274   86.12426 
 C                     83.09799   166.15861   85.82689 
 C                     80.98434   166.36954   80.18631 
 C                     81.47099   171.8645   81.62035 
 C                     82.71024   170.88488   85.62049 
 C                     82.65544   166.67748   84.59163 
 C                     81.1921   167.67071   80.65717 
 N                     82.54671   168.01639   84.6471 
 Fe                    81.99645   169.26962   83.13321 
 H                     79.72422   172.20199   77.99962 
 H                     79.59207   170.48447   78.03956 
 H                     83.72316   171.95674   88.06383 
 H                     83.24355   164.42765   87.25503 
 H                     80.93061   166.50625   78.06088 
 H                     80.72034   164.89517   78.6182 
 H                     81.82952   170.26121   77.14395 
 H                     82.03217   171.98495   77.20667 
 H                     82.9444   173.82719   89.19977 
 H                     81.95462   174.33541   87.80059 
 H                     83.87303   162.7996   85.66596 
 H                     83.89083   164.04265   84.37719 
 H                     78.46755   165.3968   79.36333 
 H                     78.64884   167.03968   78.82684 
 H                     80.77918   168.69551   78.83936 
 H                     81.93108   173.70318   82.53361 
 H                     83.20334   169.8739   87.37344 
 H                     82.37133   164.86991   83.49774 
 H                     81.53397   174.09697   79.16763 
 H                     81.15477   174.47415   80.81454 
 H                     79.87918   174.05654   79.72674 
 H                     82.60702   174.96739   86.1073 
 H                     81.36893   174.92895   84.93377 
 H                     83.05458   175.04852   84.50457 
 H                     83.90994   166.21821   88.45583 
 H                     82.94325   167.62772   88.7504 
 H                     84.60243   167.79479   88.25168 
 H                     82.32945   163.66035   81.38573 
 H                     80.97466   163.65365   80.29122 
 H                     80.69261   163.70847   82.00481 
 
 NAtoms=     73 NQM=       73 NQMF=       0 NMMI=      0 NMMIF=      0
                NMic=       0 NMicF=      0.
                    Isotopes and Nuclear Properties:
 (Nuclear quadrupole moments (NQMom) in fm**2, nuclear magnetic moments (NMagM)
  in nuclear magnetons)

  Atom         1           2           3           4           5           6           7           8           9          10
 IAtWgt=          12          12          12          12          14          12          12          12          12          14
 AtmWgt=  12.0000000  12.0000000  12.0000000  12.0000000  14.0030740  12.0000000  12.0000000  12.0000000  12.0000000  14.0030740
 NucSpn=           0           0           0           0           2           0           0           0           0           2
 AtZEff=   0.0000000   0.0000000   0.0000000   0.0000000   0.0000000   0.0000000   0.0000000   0.0000000   0.0000000   0.0000000
 NQMom=    0.0000000   0.0000000   0.0000000   0.0000000   2.0440000   0.0000000   0.0000000   0.0000000   0.0000000   2.0440000
 NMagM=    0.0000000   0.0000000   0.0000000   0.0000000   0.4037610   0.0000000   0.0000000   0.0000000   0.0000000   0.4037610
 AtZNuc=   6.0000000   6.0000000   6.0000000   6.0000000   7.0000000   6.0000000   6.0000000   6.0000000   6.0000000   7.0000000

  Atom        11          12          13          14          15          16          17          18          19          20
 IAtWgt=          12          12          14          12          12          12          12          12          12          12
 AtmWgt=  12.0000000  12.0000000  14.0030740  12.0000000  12.0000000  12.0000000  12.0000000  12.0000000  12.0000000  12.0000000
 NucSpn=           0           0           2           0           0           0           0           0           0           0
 AtZEff=   0.0000000   0.0000000   0.0000000   0.0000000   0.0000000   0.0000000   0.0000000   0.0000000   0.0000000   0.0000000
 NQMom=    0.0000000   0.0000000   2.0440000   0.0000000   0.0000000   0.0000000   0.0000000   0.0000000   0.0000000   0.0000000
 NMagM=    0.0000000   0.0000000   0.4037610   0.0000000   0.0000000   0.0000000   0.0000000   0.0000000   0.0000000   0.0000000
 AtZNuc=   6.0000000   6.0000000   7.0000000   6.0000000   6.0000000   6.0000000   6.0000000   6.0000000   6.0000000   6.0000000

  Atom        21          22          23          24          25          26          27          28          29          30
 IAtWgt=          12          12          12          12          12          16          16          12          12          12
 AtmWgt=  12.0000000  12.0000000  12.0000000  12.0000000  12.0000000  15.9949146  15.9949146  12.0000000  12.0000000  12.0000000
 NucSpn=           0           0           0           0           0           0           0           0           0           0
 AtZEff=   0.0000000   0.0000000   0.0000000   0.0000000   0.0000000   0.0000000   0.0000000   0.0000000   0.0000000   0.0000000
 NQMom=    0.0000000   0.0000000   0.0000000   0.0000000   0.0000000   0.0000000   0.0000000   0.0000000   0.0000000   0.0000000
 NMagM=    0.0000000   0.0000000   0.0000000   0.0000000   0.0000000   0.0000000   0.0000000   0.0000000   0.0000000   0.0000000
 AtZNuc=   6.0000000   6.0000000   6.0000000   6.0000000   6.0000000   8.0000000   8.0000000   6.0000000   6.0000000   6.0000000

  Atom        31          32          33          34          35          36          37          38          39          40
 IAtWgt=          12          16          16          12          12          12          12          12          12          12
 AtmWgt=  12.0000000  15.9949146  15.9949146  12.0000000  12.0000000  12.0000000  12.0000000  12.0000000  12.0000000  12.0000000
 NucSpn=           0           0           0           0           0           0           0           0           0           0
 AtZEff=   0.0000000   0.0000000   0.0000000   0.0000000   0.0000000   0.0000000   0.0000000   0.0000000   0.0000000   0.0000000
 NQMom=    0.0000000   0.0000000   0.0000000   0.0000000   0.0000000   0.0000000   0.0000000   0.0000000   0.0000000   0.0000000
 NMagM=    0.0000000   0.0000000   0.0000000   0.0000000   0.0000000   0.0000000   0.0000000   0.0000000   0.0000000   0.0000000
 AtZNuc=   6.0000000   8.0000000   8.0000000   6.0000000   6.0000000   6.0000000   6.0000000   6.0000000   6.0000000   6.0000000

  Atom        41          42          43          44          45          46          47          48          49          50
 IAtWgt=          12          14          56           1           1           1           1           1           1           1
 AtmWgt=  12.0000000  14.0030740  55.9349393   1.0078250   1.0078250   1.0078250   1.0078250   1.0078250   1.0078250   1.0078250
 NucSpn=           0           2           0           1           1           1           1           1           1           1
 AtZEff=   0.0000000   0.0000000   0.0000000   0.0000000   0.0000000   0.0000000   0.0000000   0.0000000   0.0000000   0.0000000
 NQMom=    0.0000000   2.0440000   0.0000000   0.0000000   0.0000000   0.0000000   0.0000000   0.0000000   0.0000000   0.0000000
 NMagM=    0.0000000   0.4037610   0.0000000   2.7928460   2.7928460   2.7928460   2.7928460   2.7928460   2.7928460   2.7928460
 AtZNuc=   6.0000000   7.0000000  26.0000000   1.0000000   1.0000000   1.0000000   1.0000000   1.0000000   1.0000000   1.0000000

  Atom        51          52          53          54          55          56          57          58          59          60
 IAtWgt=           1           1           1           1           1           1           1           1           1           1
 AtmWgt=   1.0078250   1.0078250   1.0078250   1.0078250   1.0078250   1.0078250   1.0078250   1.0078250   1.0078250   1.0078250
 NucSpn=           1           1           1           1           1           1           1           1           1           1
 AtZEff=   0.0000000   0.0000000   0.0000000   0.0000000   0.0000000   0.0000000   0.0000000   0.0000000   0.0000000   0.0000000
 NQMom=    0.0000000   0.0000000   0.0000000   0.0000000   0.0000000   0.0000000   0.0000000   0.0000000   0.0000000   0.0000000
 NMagM=    2.7928460   2.7928460   2.7928460   2.7928460   2.7928460   2.7928460   2.7928460   2.7928460   2.7928460   2.7928460
 AtZNuc=   1.0000000   1.0000000   1.0000000   1.0000000   1.0000000   1.0000000   1.0000000   1.0000000   1.0000000   1.0000000

  Atom        61          62          63          64          65          66          67          68          69          70
 IAtWgt=           1           1           1           1           1           1           1           1           1           1
 AtmWgt=   1.0078250   1.0078250   1.0078250   1.0078250   1.0078250   1.0078250   1.0078250   1.0078250   1.0078250   1.0078250
 NucSpn=           1           1           1           1           1           1           1           1           1           1
 AtZEff=   0.0000000   0.0000000   0.0000000   0.0000000   0.0000000   0.0000000   0.0000000   0.0000000   0.0000000   0.0000000
 NQMom=    0.0000000   0.0000000   0.0000000   0.0000000   0.0000000   0.0000000   0.0000000   0.0000000   0.0000000   0.0000000
 NMagM=    2.7928460   2.7928460   2.7928460   2.7928460   2.7928460   2.7928460   2.7928460   2.7928460   2.7928460   2.7928460
 AtZNuc=   1.0000000   1.0000000   1.0000000   1.0000000   1.0000000   1.0000000   1.0000000   1.0000000   1.0000000   1.0000000

  Atom        71          72          73
 IAtWgt=           1           1           1
 AtmWgt=   1.0078250   1.0078250   1.0078250
 NucSpn=           1           1           1
 AtZEff=   0.0000000   0.0000000   0.0000000
 NQMom=    0.0000000   0.0000000   0.0000000
 NMagM=    2.7928460   2.7928460   2.7928460
 AtZNuc=   1.0000000   1.0000000   1.0000000
 Leave Link  101 at Thu Aug 19 19:21:37 2021, MaxMem=    33554432 cpu:         2.5
 (Enter /home/wendao/install/g09/l202.exe)
 Stoichiometry    C34H30FeN4O4(3)
 Framework group  C1[X(C34H30FeN4O4)]
 Deg. of freedom   213
 Full point group                 C1      NOp   1
 Largest Abelian subgroup         C1      NOp   1
 Largest concise Abelian subgroup C1      NOp   1
                         Standard orientation:                         
 ---------------------------------------------------------------------
 Center     Atomic      Atomic             Coordinates (Angstroms)
 Number     Number       Type             X           Y           Z
 ---------------------------------------------------------------------
      1          6           0        3.785877   -2.697270    0.097963
      2          6           0       -6.057744   -2.693822    0.404943
      3          6           0       -3.893891    4.914027   -0.510287
      4          6           0        3.816115    2.716359   -0.036163
      5          7           0        0.288590   -1.434133    0.052502
      6          6           0        4.522632   -2.744107   -1.202562
      7          6           0       -6.685692   -3.655291    1.073964
      8          6           0       -3.081936    5.722463   -1.159376
      9          6           0        4.455692    2.578682    1.325052
     10          7           0       -2.594789   -1.448696    0.059084
     11          6           0        5.984107   -3.056255   -1.038065
     12          6           0        5.937442    2.795788    1.327083
     13          7           0        0.295889    1.422910   -0.141439
     14          6           0        2.275987   -0.058371   -0.105290
     15          6           0       -1.099925   -3.414394    0.072261
     16          6           0       -4.540949   -0.055957    0.068012
     17          6           0       -1.066687    3.369262   -0.346658
     18          6           0        1.538525   -4.931315    0.184177
     19          6           0       -3.859561   -4.952817    0.435036
     20          6           0       -6.076726    2.711108   -0.187220
     21          6           0        1.534951    4.882882   -0.209033
     22          6           0        1.640356   -1.244488   -0.008983
     23          6           0       -2.399468   -2.783513    0.129317
     24          6           0       -3.910554    1.259793   -0.090474
     25          6           0        0.111642    2.750263   -0.236940
     26          8           0        6.539207   -2.911912    0.040095
     27          8           0        6.498232    3.191054    2.338001
     28          6           0        2.297850   -2.473145    0.022071
     29          6           0       -3.617135   -3.466901    0.283010
     30          6           0       -4.590650    2.483090   -0.205715
     31          6           0        1.334526    3.415231   -0.199943
     32          8           0        6.666865   -3.582687   -2.070871
     33          8           0        6.665446    2.465609    0.247597
     34          6           0        1.317548   -3.447113    0.089686
     35          6           0       -4.590604   -2.498070    0.273346
     36          6           0       -3.625239    3.451846   -0.360884
     37          6           0        2.314690    2.462317   -0.103533
     38          6           0        0.093040   -2.783495    0.079821
     39          6           0       -3.929146   -1.261201    0.113891
     40          6           0       -2.392764    2.766997   -0.306738
     41          6           0        1.636132    1.238608   -0.107070
     42          7           0       -2.586367    1.447316   -0.137801
     43         26           0       -1.154348   -0.003651   -0.041632
     44          1           0        4.001719   -3.621562    0.622648
     45          1           0        4.230756   -1.915477    0.698472
     46          1           0       -6.685176   -1.984322   -0.047961
     47          1           0       -4.787086    5.361691   -0.116762
     48          1           0        4.312530    2.037832   -0.709733
     49          1           0        4.065525    3.708203   -0.394696
     50          1           0        4.400752   -1.800636   -1.713179
     51          1           0        4.052244   -3.498458   -1.823737
     52          1           0       -7.754524   -3.688435    1.113030
     53          1           0       -6.194902   -4.388738    1.635342
     54          1           0       -3.276550    6.763091   -1.268410
     55          1           0       -2.233036    5.356669   -1.641872
     56          1           0        4.005369    3.297035    1.994704
     57          1           0        4.237701    1.597791    1.714825
     58          1           0        3.340864   -0.026391   -0.244255
     59          1           0       -1.151171   -4.477908   -0.006053
     60          1           0       -5.599831   -0.018155    0.155234
     61          1           0       -1.037934    4.407259   -0.443114
     62          1           0        2.087343   -5.327924   -0.663386
     63          1           0        0.607919   -5.480508    0.223401
     64          1           0        2.085688   -5.223245    1.080635
     65          1           0       -4.889821   -5.240370    0.511179
     66          1           0       -3.392891   -5.370142    1.319806
     67          1           0       -3.533465   -5.535371   -0.410184
     68          1           0       -6.360100    3.755415   -0.310686
     69          1           0       -6.518805    2.392399    0.749965
     70          1           0       -6.591925    2.170489   -0.974831
     71          1           0        1.120062    5.318441   -1.105063
     72          1           0        2.575107    5.167158   -0.159859
     73          1           0        1.044770    5.343660    0.643798
 ---------------------------------------------------------------------
 Rotational constants (GHZ):      0.0905637      0.0534816      0.0350627
 Leave Link  202 at Thu Aug 19 19:21:37 2021, MaxMem=    33554432 cpu:         0.1
 (Enter /home/wendao/install/g09/l301.exe)
 Standard basis: 6-31G(d) (6D, 7F)
 Ernie: Thresh=  0.10000D-02 Tol=  0.10000D-05 Strict=F.
 There are   729 symmetry adapted cartesian basis functions of A   symmetry.
 There are   726 symmetry adapted basis functions of A   symmetry.
   726 basis functions,  1400 primitive gaussians,   729 cartesian basis functions
   161 alpha electrons      159 beta electrons
       nuclear repulsion energy      5531.4103034585 Hartrees.
 IExCor=    0 DFT=F Ex=HF Corr=None ExCW=0 ScaHFX=  1.000000
 ScaDFX=  1.000000  1.000000  1.000000  1.000000 ScalE2=  1.000000  1.000000
 IRadAn=      0 IRanWt=     -1 IRanGd=            0 ICorTp=0 IEmpDi=  4
 NAtoms=   73 NActive=   73 NUniq=   73 SFac= 1.00D+00 NAtFMM=   60 NAOKFM=T Big=T
 Integral buffers will be    131072 words long.
 Raffenetti 2 integral format.
 Two-electron integral symmetry is turned on.
 Leave Link  301 at Thu Aug 19 19:21:37 2021, MaxMem=    33554432 cpu:         0.5
 (Enter /home/wendao/install/g09/l302.exe)
 NPDir=0 NMtPBC=     1 NCelOv=     1 NCel=       1 NClECP=     1 NCelD=      1
         NCelK=      1 NCelE2=     1 NClLst=     1 CellRange=     0.0.
 One-electron integrals computed using PRISM.
 PrsmSu:  requested number of processors reduced to:   3 ShMem   1 Linda.
 NBasis=   726 RedAO= T EigKep=  2.43D-04  NBF=   726
 NBsUse=   726 1.00D-06 EigRej= -1.00D+00 NBFU=   726
 Leave Link  302 at Thu Aug 19 19:21:39 2021, MaxMem=    33554432 cpu:        15.2
 (Enter /home/wendao/install/g09/l303.exe)
 DipDrv:  MaxL=1.
 Leave Link  303 at Thu Aug 19 19:21:40 2021, MaxMem=    33554432 cpu:         1.1
 (Enter /home/wendao/install/g09/l401.exe)
 ExpMin= 4.11D-02 ExpMax= 6.11D+04 ExpMxC= 9.18D+03 IAcc=2 IRadAn=         4 AccDes= 0.00D+00
 Harris functional with IExCor=  205 and IRadAn=       4 diagonalized for initial guess.
 HarFok:  IExCor=  205 AccDes= 0.00D+00 IRadAn=         4 IDoV= 1 UseB2=F ITyADJ=14
 ICtDFT=  3500011 ScaDFX=  1.000000  1.000000  1.000000  1.000000
 FoFCou: FMM=F IPFlag=           0 FMFlag=      100000 FMFlg1=        2001
         NFxFlg=           0 DoJE=T BraDBF=F KetDBF=T FulRan=T
         wScrn=  0.000000 ICntrl=     500 IOpCl=  0 I1Cent=   200000004 NGrid=           0
         NMat0=    1 NMatS0=      1 NMatT0=    0 NMatD0=    1 NMtDS0=    0 NMtDT0=    0
 Petite list used in FoFCou.
 Harris En= -3086.25992521170    
 JPrj=0 DoOrth=F DoCkMO=F.
 Initial guess <Sx>= 0.0000 <Sy>= 0.0000 <Sz>= 1.0000 <S**2>= 2.0000 S= 1.0000
 Leave Link  401 at Thu Aug 19 19:21:44 2021, MaxMem=    33554432 cpu:        31.2
 (Enter /home/wendao/install/g09/l502.exe)
 UHF open shell SCF:
 Using DIIS extrapolation, IDIIS=  1040.
 Integral symmetry usage will be decided dynamically.
 IVT=     1624187 IEndB=     1624187 NGot=    33554432 MDV=    32479056
 LenX=    32479056 LenY=    31946886
 Requested convergence on RMS density matrix=1.00D-08 within 128 cycles.
 Requested convergence on MAX density matrix=1.00D-06.
 Requested convergence on             energy=1.00D-06.
 No special actions if energy rises.
 Fock matrices will be formed incrementally for  20 cycles.

 Cycle   1  Pass 0  IDiag  1:
 FoFJK:  IHMeth= 1 ICntrl=       0 DoSepK=F KAlg= 0 I1Cent=   0 FoldK=F
 IRaf= 770000000 NMat=   1 IRICut=       1 DoRegI=T DoRafI=F ISym2E= 0.
 FoFCou: FMM=T IPFlag=           0 FMFlag=      100000 FMFlg1=        2001
         NFxFlg=           0 DoJE=F BraDBF=F KetDBF=F FulRan=T
         wScrn=  0.000000 ICntrl=       0 IOpCl=  1 I1Cent=           0 NGrid=           0
         NMat0=    1 NMatS0=      1 NMatT0=    0 NMatD0=    1 NMtDS0=    0 NMtDT0=    0
 Symmetry not used in FoFCou.
 FMM levels:  10  Number of levels for PrismC:   9
 E= -3079.32492020704    
 DIIS: error= 1.60D-01 at cycle   1 NSaved=   1.
 NSaved= 1 IEnMin= 1 EnMin= -3079.32492020704     IErMin= 1 ErrMin= 1.60D-01
 ErrMax= 1.60D-01  0.00D+00 EMaxC= 1.00D-01 BMatC= 2.56D+01 BMatP= 2.56D+01
 IDIUse=3 WtCom= 0.00D+00 WtEn= 1.00D+00
 Coeff-Com:  0.100D+01
 Coeff-En:   0.100D+01
 Coeff:      0.100D+01
 Gap=    -0.561 Goal=   None    Shift=    0.000
 Gap=     1.491 Goal=   None    Shift=    0.000
 GapD=   -0.561 DampG=0.250 DampE=0.125 DampFc=0.1250 IDamp=-1.
 Damping current iteration by 1.25D-01
 RMSDP=1.24D-02 MaxDP=1.71D+00              OVMax= 9.65D-01

 Cycle   2  Pass 0  IDiag  1:
 RMSU=  1.54D-03    CP:  9.84D-01
 E= -3080.66786922667     Delta-E=       -1.342949019627 Rises=F Damp=T
 DIIS: error= 7.48D-02 at cycle   2 NSaved=   2.
 NSaved= 2 IEnMin= 2 EnMin= -3080.66786922667     IErMin= 2 ErrMin= 7.48D-02
 ErrMax= 7.48D-02  0.00D+00 EMaxC= 1.00D-01 BMatC= 1.13D+01 BMatP= 2.56D+01
 IDIUse=3 WtCom= 2.52D-01 WtEn= 7.48D-01
 Coeff-Com: -0.101D+01 0.201D+01
 Coeff-En:   0.000D+00 0.100D+01
 Coeff:     -0.255D+00 0.126D+01
 Gap=    -0.138 Goal=   None    Shift=    0.000
 Gap=     0.966 Goal=   None    Shift=    0.000
 RMSDP=5.20D-03 MaxDP=4.96D-01 DE=-1.34D+00 OVMax= 9.47D-01

 Cycle   3  Pass 0  IDiag  1:
 RMSU=  4.86D-03    CP:  8.62D-01  1.40D+00
 E= -3074.91935568672     Delta-E=        5.748513539951 Rises=F Damp=F
 DIIS: error= 1.31D-01 at cycle   3 NSaved=   3.
 NSaved= 3 IEnMin= 2 EnMin= -3080.66786922667     IErMin= 2 ErrMin= 7.48D-02
 ErrMax= 1.31D-01  0.00D+00 EMaxC= 1.00D-01 BMatC= 4.45D+01 BMatP= 1.13D+01
 IDIUse=2 WtCom= 0.00D+00 WtEn= 1.00D+00
 EnCoef did   100 forward-backward iterations
 Coeff-En:   0.597D+00 0.330D-01 0.370D+00
 Coeff:      0.597D+00 0.330D-01 0.370D+00
 Gap=     0.137 Goal=   None    Shift=    0.000
 Gap=    -0.111 Goal=   None    Shift=    0.000
 RMSDP=4.19D-03 MaxDP=5.85D-01 DE= 5.75D+00 OVMax= 9.60D-01

 Cycle   4  Pass 0  IDiag  1:
 RMSU=  3.74D-03    CP:  8.72D-01  1.07D+00  6.25D-01
 E= -3075.98819710732     Delta-E=       -1.068841420609 Rises=F Damp=F
 DIIS: error= 7.28D-02 at cycle   4 NSaved=   4.
 NSaved= 4 IEnMin= 2 EnMin= -3080.66786922667     IErMin= 4 ErrMin= 7.28D-02
 ErrMax= 7.28D-02  0.00D+00 EMaxC= 1.00D-01 BMatC= 1.39D+01 BMatP= 1.13D+01
 IDIUse=2 WtCom= 0.00D+00 WtEn= 1.00D+00
 EnCoef did   100 forward-backward iterations
 Coeff-En:   0.549D+00 0.119D-01 0.274D+00 0.165D+00
 Coeff:      0.549D+00 0.119D-01 0.274D+00 0.165D+00
 Gap=     0.016 Goal=   None    Shift=    0.000
 Gap=    -0.244 Goal=   None    Shift=    0.000
 RMSDP=3.42D-03 MaxDP=4.00D-01 DE=-1.07D+00 OVMax= 9.75D-01

 Cycle   5  Pass 0  IDiag  1:
 RMSU=  2.18D-03    CP:  8.86D-01  6.91D-01  6.01D-01  3.17D-01
 E= -3083.00160527931     Delta-E=       -7.013408171986 Rises=F Damp=F
 DIIS: error= 5.96D-02 at cycle   5 NSaved=   5.
 NSaved= 5 IEnMin= 5 EnMin= -3083.00160527931     IErMin= 5 ErrMin= 5.96D-02
 ErrMax= 5.96D-02  0.00D+00 EMaxC= 1.00D-01 BMatC= 4.19D+00 BMatP= 1.13D+01
 IDIUse=3 WtCom= 4.04D-01 WtEn= 5.96D-01
 EnCoef did     4 forward-backward iterations
 Coeff-Com: -0.648D+00 0.810D+00 0.599D-01 0.276D-01 0.750D+00
 Coeff-En:   0.000D+00 0.000D+00 0.119D+00 0.935D-01 0.788D+00
 Coeff:     -0.261D+00 0.327D+00 0.951D-01 0.669D-01 0.772D+00
 Gap=     0.013 Goal=   None    Shift=    0.000
 Gap=     0.027 Goal=   None    Shift=    0.000
 RMSDP=1.85D-03 MaxDP=4.72D-01 DE=-7.01D+00 OVMax= 9.78D-01

 Cycle   6  Pass 0  IDiag  1:
 RMSU=  1.47D-03    CP:  8.71D-01  9.91D-01  7.67D-01  2.95D-01  7.21D-01
 E= -3083.94613344693     Delta-E=       -0.944528167616 Rises=F Damp=F
 DIIS: error= 3.41D-02 at cycle   6 NSaved=   6.
 NSaved= 6 IEnMin= 6 EnMin= -3083.94613344693     IErMin= 6 ErrMin= 3.41D-02
 ErrMax= 3.41D-02  0.00D+00 EMaxC= 1.00D-01 BMatC= 7.76D-01 BMatP= 4.19D+00
 IDIUse=3 WtCom= 6.59D-01 WtEn= 3.41D-01
 Coeff-Com: -0.242D+00 0.290D+00-0.985D-02 0.543D-01 0.369D+00 0.539D+00
 Coeff-En:   0.000D+00 0.000D+00 0.000D+00 0.000D+00 0.000D+00 0.100D+01
 Coeff:     -0.159D+00 0.191D+00-0.649D-02 0.358D-01 0.243D+00 0.696D+00
 Gap=     0.074 Goal=   None    Shift=    0.000
 Gap=     0.403 Goal=   None    Shift=    0.000
 RMSDP=7.72D-04 MaxDP=8.27D-02 DE=-9.45D-01 OVMax= 2.03D-01

 Cycle   7  Pass 0  IDiag  1:
 RMSU=  6.47D-04    CP:  8.73D-01  9.14D-01  7.28D-01  3.58D-01  8.02D-01
                    CP:  8.63D-01
 E= -3084.13606184933     Delta-E=       -0.189928402406 Rises=F Damp=F
 DIIS: error= 1.31D-02 at cycle   7 NSaved=   7.
 NSaved= 7 IEnMin= 7 EnMin= -3084.13606184933     IErMin= 7 ErrMin= 1.31D-02
 ErrMax= 1.31D-02  0.00D+00 EMaxC= 1.00D-01 BMatC= 2.13D-01 BMatP= 7.76D-01
 IDIUse=3 WtCom= 8.69D-01 WtEn= 1.31D-01
 Coeff-Com: -0.673D-01 0.792D-01 0.107D-01 0.414D-01 0.628D-01 0.213D+00
 Coeff-Com:  0.660D+00
 Coeff-En:   0.000D+00 0.000D+00 0.000D+00 0.000D+00 0.000D+00 0.000D+00
 Coeff-En:   0.100D+01
 Coeff:     -0.585D-01 0.688D-01 0.926D-02 0.359D-01 0.546D-01 0.185D+00
 Coeff:      0.705D+00
 Gap=     0.080 Goal=   None    Shift=    0.000
 Gap=     0.154 Goal=   None    Shift=    0.000
 RMSDP=3.55D-04 MaxDP=5.05D-02 DE=-1.90D-01 OVMax= 7.30D-02

 Cycle   8  Pass 0  IDiag  1:
 RMSU=  3.17D-04    CP:  8.70D-01  9.56D-01  7.49D-01  3.36D-01  8.05D-01
                    CP:  8.96D-01  9.95D-01
 E= -3084.17376071014     Delta-E=       -0.037698860811 Rises=F Damp=F
 DIIS: error= 6.86D-03 at cycle   8 NSaved=   8.
 NSaved= 8 IEnMin= 8 EnMin= -3084.17376071014     IErMin= 8 ErrMin= 6.86D-03
 ErrMax= 6.86D-03  0.00D+00 EMaxC= 1.00D-01 BMatC= 7.22D-02 BMatP= 2.13D-01
 IDIUse=3 WtCom= 9.31D-01 WtEn= 6.86D-02
 Coeff-Com: -0.336D-01 0.429D-01 0.591D-02 0.352D-01-0.157D-01-0.849D-01
 Coeff-Com: -0.205D+00 0.126D+01
 Coeff-En:   0.000D+00 0.000D+00 0.000D+00 0.000D+00 0.000D+00 0.000D+00
 Coeff-En:   0.000D+00 0.100D+01
 Coeff:     -0.313D-01 0.399D-01 0.550D-02 0.328D-01-0.146D-01-0.790D-01
 Coeff:     -0.191D+00 0.124D+01
 Gap=     0.088 Goal=   None    Shift=    0.000
 Gap=     0.160 Goal=   None    Shift=    0.000
 RMSDP=2.73D-04 MaxDP=4.57D-02 DE=-3.77D-02 OVMax= 5.40D-02

 Cycle   9  Pass 0  IDiag  1:
 RMSU=  1.54D-04    CP:  8.69D-01  9.88D-01  7.58D-01  3.27D-01  8.03D-01
                    CP:  8.92D-01  1.13D+00  1.62D+00
 E= -3084.19625150332     Delta-E=       -0.022490793181 Rises=F Damp=F
 DIIS: error= 6.89D-03 at cycle   9 NSaved=   9.
 NSaved= 9 IEnMin= 9 EnMin= -3084.19625150332     IErMin= 8 ErrMin= 6.86D-03
 ErrMax= 6.89D-03  0.00D+00 EMaxC= 1.00D-01 BMatC= 3.59D-02 BMatP= 7.22D-02
 IDIUse=3 WtCom= 9.31D-01 WtEn= 6.86D-02
 Coeff-Com: -0.213D-01 0.279D-01-0.327D-02 0.260D-01-0.691D-02-0.264D-01
 Coeff-Com: -0.268D+00 0.387D-01 0.123D+01
 Coeff-En:   0.000D+00 0.000D+00 0.000D+00 0.000D+00 0.000D+00 0.000D+00
 Coeff-En:   0.000D+00 0.000D+00 0.100D+01
 Coeff:     -0.199D-01 0.260D-01-0.305D-02 0.242D-01-0.644D-02-0.246D-01
 Coeff:     -0.250D+00 0.360D-01 0.122D+01
 Gap=     0.100 Goal=   None    Shift=    0.000
 Gap=     0.147 Goal=   None    Shift=    0.000
 RMSDP=2.12D-04 MaxDP=2.77D-02 DE=-2.25D-02 OVMax= 4.68D-02

 Cycle  10  Pass 0  IDiag  1:
 RMSU=  9.75D-05    CP:  8.68D-01  1.01D+00  7.64D-01  3.24D-01  7.98D-01
                    CP:  9.08D-01  1.18D+00  2.12D+00  1.52D+00
 E= -3084.20917327462     Delta-E=       -0.012921771293 Rises=F Damp=F
 DIIS: error= 3.61D-03 at cycle  10 NSaved=  10.
 NSaved=10 IEnMin=10 EnMin= -3084.20917327462     IErMin=10 ErrMin= 3.61D-03
 ErrMax= 3.61D-03  0.00D+00 EMaxC= 1.00D-01 BMatC= 1.18D-02 BMatP= 3.59D-02
 IDIUse=3 WtCom= 9.64D-01 WtEn= 3.61D-02
 Coeff-Com: -0.227D-02 0.408D-02-0.325D-02 0.950D-02-0.108D-01 0.240D-01
 Coeff-Com:  0.247D+00-0.511D+00-0.298D+00 0.154D+01
 Coeff-En:   0.000D+00 0.000D+00 0.000D+00 0.000D+00 0.000D+00 0.000D+00
 Coeff-En:   0.000D+00 0.000D+00 0.000D+00 0.100D+01
 Coeff:     -0.219D-02 0.394D-02-0.313D-02 0.915D-02-0.104D-01 0.231D-01
 Coeff:      0.238D+00-0.493D+00-0.287D+00 0.152D+01
 Gap=     0.090 Goal=   None    Shift=    0.000
 Gap=     0.137 Goal=   None    Shift=    0.000
 RMSDP=1.64D-04 MaxDP=1.73D-02 DE=-1.29D-02 OVMax= 3.38D-02

 Cycle  11  Pass 0  IDiag  1:
 RMSU=  6.94D-05    CP:  8.68D-01  1.01D+00  7.62D-01  3.31D-01  7.95D-01
                    CP:  9.16D-01  1.25D+00  2.28D+00  2.02D+00  2.00D+00
 E= -3084.21710299840     Delta-E=       -0.007929723779 Rises=F Damp=F
 DIIS: error= 2.20D-03 at cycle  11 NSaved=  11.
 NSaved=11 IEnMin=11 EnMin= -3084.21710299840     IErMin=11 ErrMin= 2.20D-03
 ErrMax= 2.20D-03  0.00D+00 EMaxC= 1.00D-01 BMatC= 2.55D-03 BMatP= 1.18D-02
 IDIUse=3 WtCom= 9.78D-01 WtEn= 2.20D-02
 Coeff-Com: -0.467D-02 0.525D-02-0.700D-03 0.130D-02 0.144D-02 0.103D-01
 Coeff-Com:  0.120D+00-0.110D+00-0.351D+00 0.238D+00 0.109D+01
 Coeff-En:   0.000D+00 0.000D+00 0.000D+00 0.000D+00 0.000D+00 0.000D+00
 Coeff-En:   0.000D+00 0.000D+00 0.000D+00 0.000D+00 0.100D+01
 Coeff:     -0.456D-02 0.514D-02-0.685D-03 0.127D-02 0.141D-02 0.100D-01
 Coeff:      0.117D+00-0.107D+00-0.344D+00 0.233D+00 0.109D+01
 Gap=     0.090 Goal=   None    Shift=    0.000
 Gap=     0.135 Goal=   None    Shift=    0.000
 RMSDP=9.52D-05 MaxDP=1.04D-02 DE=-7.93D-03 OVMax= 2.82D-02

 Cycle  12  Pass 0  IDiag  1:
 RMSU=  3.56D-05    CP:  8.69D-01  1.01D+00  7.61D-01  3.36D-01  7.93D-01
                    CP:  9.20D-01  1.28D+00  2.34D+00  2.21D+00  2.68D+00
                    CP:  1.56D+00
 E= -3084.22015789000     Delta-E=       -0.003054891600 Rises=F Damp=F
 DIIS: error= 1.25D-03 at cycle  12 NSaved=  12.
 NSaved=12 IEnMin=12 EnMin= -3084.22015789000     IErMin=12 ErrMin= 1.25D-03
 ErrMax= 1.25D-03  0.00D+00 EMaxC= 1.00D-01 BMatC= 9.79D-04 BMatP= 2.55D-03
 IDIUse=3 WtCom= 9.88D-01 WtEn= 1.25D-02
 Coeff-Com: -0.258D-02 0.284D-02-0.130D-03-0.893D-03 0.640D-02-0.307D-02
 Coeff-Com: -0.756D-01 0.133D+00 0.109D+00-0.481D+00-0.293D-01 0.134D+01
 Coeff-En:   0.000D+00 0.000D+00 0.000D+00 0.000D+00 0.000D+00 0.000D+00
 Coeff-En:   0.000D+00 0.000D+00 0.000D+00 0.000D+00 0.000D+00 0.100D+01
 Coeff:     -0.254D-02 0.281D-02-0.128D-03-0.882D-03 0.632D-02-0.303D-02
 Coeff:     -0.747D-01 0.132D+00 0.108D+00-0.475D+00-0.289D-01 0.134D+01
 Gap=     0.092 Goal=   None    Shift=    0.000
 Gap=     0.138 Goal=   None    Shift=    0.000
 RMSDP=8.57D-05 MaxDP=1.05D-02 DE=-3.05D-03 OVMax= 3.19D-02

 Cycle  13  Pass 0  IDiag  1:
 RMSU=  3.21D-05    CP:  8.69D-01  1.01D+00  7.60D-01  3.38D-01  7.91D-01
                    CP:  9.20D-01  1.29D+00  2.38D+00  2.36D+00  3.00D+00
                    CP:  2.22D+00  2.10D+00
 E= -3084.22247082309     Delta-E=       -0.002312933098 Rises=F Damp=F
 DIIS: error= 7.82D-04 at cycle  13 NSaved=  13.
 NSaved=13 IEnMin=13 EnMin= -3084.22247082309     IErMin=13 ErrMin= 7.82D-04
 ErrMax= 7.82D-04  0.00D+00 EMaxC= 1.00D-01 BMatC= 7.61D-04 BMatP= 9.79D-04
 IDIUse=3 WtCom= 9.92D-01 WtEn= 7.82D-03
 Coeff-Com:  0.101D-02-0.852D-03-0.168D-03-0.110D-02 0.258D-02-0.811D-02
 Coeff-Com: -0.150D-01 0.257D-01 0.761D-01-0.365D-01-0.335D+00-0.153D+00
 Coeff-Com:  0.144D+01
 Coeff-En:   0.000D+00 0.000D+00 0.000D+00 0.000D+00 0.000D+00 0.000D+00
 Coeff-En:   0.000D+00 0.000D+00 0.000D+00 0.000D+00 0.000D+00 0.000D+00
 Coeff-En:   0.100D+01
 Coeff:      0.101D-02-0.845D-03-0.167D-03-0.109D-02 0.256D-02-0.805D-02
 Coeff:     -0.149D-01 0.255D-01 0.755D-01-0.362D-01-0.332D+00-0.152D+00
 Coeff:      0.144D+01
 Gap=     0.095 Goal=   None    Shift=    0.000
 Gap=     0.141 Goal=   None    Shift=    0.000
 RMSDP=8.37D-05 MaxDP=8.26D-03 DE=-2.31D-03 OVMax= 3.57D-02

 Cycle  14  Pass 0  IDiag  1:
 RMSU=  2.94D-05    CP:  8.69D-01  1.01D+00  7.58D-01  3.40D-01  7.89D-01
                    CP:  9.17D-01  1.31D+00  2.39D+00  2.45D+00  3.00D+00
                    CP:  2.75D+00  3.00D+00  2.47D+00
 E= -3084.22443254416     Delta-E=       -0.001961721064 Rises=F Damp=F
 DIIS: error= 6.70D-04 at cycle  14 NSaved=  14.
 NSaved=14 IEnMin=14 EnMin= -3084.22443254416     IErMin=14 ErrMin= 6.70D-04
 ErrMax= 6.70D-04  0.00D+00 EMaxC= 1.00D-01 BMatC= 5.99D-04 BMatP= 7.61D-04
 IDIUse=3 WtCom= 9.93D-01 WtEn= 6.70D-03
 Coeff-Com: -0.509D-03 0.662D-03 0.142D-03-0.455D-03 0.171D-02-0.405D-02
 Coeff-Com:  0.404D-01-0.649D-01-0.265D-01 0.257D+00 0.137D-01-0.798D+00
 Coeff-Com: -0.135D+00 0.172D+01
 Coeff-En:   0.000D+00 0.000D+00 0.000D+00 0.000D+00 0.000D+00 0.000D+00
 Coeff-En:   0.000D+00 0.000D+00 0.000D+00 0.000D+00 0.000D+00 0.000D+00
 Coeff-En:   0.000D+00 0.100D+01
 Coeff:     -0.506D-03 0.658D-03 0.141D-03-0.452D-03 0.170D-02-0.402D-02
 Coeff:      0.401D-01-0.645D-01-0.264D-01 0.256D+00 0.136D-01-0.793D+00
 Coeff:     -0.134D+00 0.171D+01
 Gap=     0.097 Goal=   None    Shift=    0.000
 Gap=     0.146 Goal=   None    Shift=    0.000
 RMSDP=1.04D-04 MaxDP=1.19D-02 DE=-1.96D-03 OVMax= 4.46D-02

 Cycle  15  Pass 0  IDiag  1:
 RMSU=  6.74D-05    CP:  8.69D-01  1.00D+00  7.57D-01  3.41D-01  7.87D-01
                    CP:  9.10D-01  1.31D+00  2.39D+00  2.52D+00  3.00D+00
                    CP:  3.00D+00  3.00D+00  3.00D+00  2.84D+00
 E= -3084.22655653522     Delta-E=       -0.002123991062 Rises=F Damp=F
 DIIS: error= 4.95D-04 at cycle  15 NSaved=  15.
 NSaved=15 IEnMin=15 EnMin= -3084.22655653522     IErMin=15 ErrMin= 4.95D-04
 ErrMax= 4.95D-04  0.00D+00 EMaxC= 1.00D-01 BMatC= 3.52D-04 BMatP= 5.99D-04
 IDIUse=3 WtCom= 9.95D-01 WtEn= 4.95D-03
 Coeff-Com: -0.121D-02 0.116D-02 0.751D-04 0.175D-03 0.125D-02 0.529D-02
 Coeff-Com: -0.108D-01 0.130D-01-0.212D-01-0.997D-01 0.170D+00 0.434D+00
 Coeff-Com: -0.897D+00-0.269D+00 0.167D+01
 Coeff-En:   0.000D+00 0.000D+00 0.000D+00 0.000D+00 0.000D+00 0.000D+00
 Coeff-En:   0.000D+00 0.000D+00 0.000D+00 0.000D+00 0.000D+00 0.000D+00
 Coeff-En:   0.000D+00 0.000D+00 0.100D+01
 Coeff:     -0.120D-02 0.115D-02 0.747D-04 0.174D-03 0.125D-02 0.526D-02
 Coeff:     -0.108D-01 0.130D-01-0.211D-01-0.992D-01 0.170D+00 0.431D+00
 Coeff:     -0.893D+00-0.268D+00 0.167D+01
 Gap=     0.100 Goal=   None    Shift=    0.000
 Gap=     0.149 Goal=   None    Shift=    0.000
 RMSDP=9.20D-05 MaxDP=1.10D-02 DE=-2.12D-03 OVMax= 3.80D-02

 Cycle  16  Pass 0  IDiag  1:
 RMSU=  5.26D-05    CP:  8.69D-01  1.00D+00  7.56D-01  3.42D-01  7.85D-01
                    CP:  9.05D-01  1.32D+00  2.40D+00  2.59D+00  3.00D+00
                    CP:  3.00D+00  3.00D+00  3.00D+00  3.00D+00  2.04D+00
 E= -3084.22812838891     Delta-E=       -0.001571853687 Rises=F Damp=F
 DIIS: error= 3.48D-04 at cycle  16 NSaved=  16.
 NSaved=16 IEnMin=16 EnMin= -3084.22812838891     IErMin=16 ErrMin= 3.48D-04
 ErrMax= 3.48D-04  0.00D+00 EMaxC= 1.00D-01 BMatC= 2.57D-04 BMatP= 3.52D-04
 IDIUse=3 WtCom= 9.97D-01 WtEn= 3.48D-03
 Coeff-Com: -0.404D-03 0.700D-03-0.120D-03 0.503D-03-0.918D-03 0.179D-02
 Coeff-Com: -0.180D-01 0.297D-01 0.545D-02-0.823D-01-0.962D-01 0.381D+00
 Coeff-Com:  0.374D+00-0.790D+00-0.632D+00 0.183D+01
 Coeff-En:   0.000D+00 0.000D+00 0.000D+00 0.000D+00 0.000D+00 0.000D+00
 Coeff-En:   0.000D+00 0.000D+00 0.000D+00 0.000D+00 0.000D+00 0.000D+00
 Coeff-En:   0.000D+00 0.000D+00 0.000D+00 0.100D+01
 Coeff:     -0.402D-03 0.697D-03-0.120D-03 0.501D-03-0.914D-03 0.179D-02
 Coeff:     -0.179D-01 0.296D-01 0.543D-02-0.820D-01-0.959D-01 0.380D+00
 Coeff:      0.372D+00-0.787D+00-0.630D+00 0.182D+01
 Gap=     0.101 Goal=   None    Shift=    0.000
 Gap=     0.151 Goal=   None    Shift=    0.000
 RMSDP=6.68D-05 MaxDP=9.53D-03 DE=-1.57D-03 OVMax= 2.22D-02

 Cycle  17  Pass 0  IDiag  1:
 RMSU=  2.12D-05    CP:  8.69D-01  1.00D+00  7.56D-01  3.43D-01  7.83D-01
                    CP:  9.03D-01  1.32D+00  2.41D+00  2.63D+00  3.00D+00
                    CP:  3.00D+00  3.00D+00  3.00D+00  3.00D+00  2.72D+00
                    CP:  1.82D+00
 E= -3084.22916255126     Delta-E=       -0.001034162349 Rises=F Damp=F
 DIIS: error= 2.87D-04 at cycle  17 NSaved=  17.
 NSaved=17 IEnMin=17 EnMin= -3084.22916255126     IErMin=17 ErrMin= 2.87D-04
 ErrMax= 2.87D-04  0.00D+00 EMaxC= 1.00D-01 BMatC= 2.04D-04 BMatP= 2.57D-04
 IDIUse=3 WtCom= 9.97D-01 WtEn= 2.87D-03
 Coeff-Com:  0.188D-03 0.234D-04-0.104D-03 0.374D-03-0.127D-02-0.362D-02
 Coeff-Com:  0.143D-01-0.134D-01 0.309D-02 0.103D+00-0.133D+00-0.345D+00
 Coeff-Com:  0.638D+00 0.446D+00-0.147D+01-0.150D-01 0.178D+01
 Coeff-En:   0.000D+00 0.000D+00 0.000D+00 0.000D+00 0.000D+00 0.000D+00
 Coeff-En:   0.000D+00 0.000D+00 0.000D+00 0.000D+00 0.000D+00 0.000D+00
 Coeff-En:   0.000D+00 0.000D+00 0.000D+00 0.000D+00 0.100D+01
 Coeff:      0.188D-03 0.233D-04-0.104D-03 0.373D-03-0.127D-02-0.361D-02
 Coeff:      0.142D-01-0.133D-01 0.308D-02 0.103D+00-0.133D+00-0.344D+00
 Coeff:      0.636D+00 0.445D+00-0.147D+01-0.149D-01 0.177D+01
 Gap=     0.102 Goal=   None    Shift=    0.000
 Gap=     0.153 Goal=   None    Shift=    0.000
 RMSDP=7.04D-05 MaxDP=1.07D-02 DE=-1.03D-03 OVMax= 2.11D-02

 Cycle  18  Pass 0  IDiag  1:
 RMSU=  2.57D-05    CP:  8.69D-01  1.00D+00  7.56D-01  3.43D-01  7.81D-01
                    CP:  9.02D-01  1.32D+00  2.43D+00  2.65D+00  3.00D+00
                    CP:  3.00D+00  3.00D+00  3.00D+00  3.00D+00  3.00D+00
                    CP:  2.64D+00  2.63D+00
 E= -3084.23013499188     Delta-E=       -0.000972440619 Rises=F Damp=F
 DIIS: error= 2.47D-04 at cycle  18 NSaved=  18.
 NSaved=18 IEnMin=18 EnMin= -3084.23013499188     IErMin=18 ErrMin= 2.47D-04
 ErrMax= 2.47D-04  0.00D+00 EMaxC= 1.00D-01 BMatC= 1.53D-04 BMatP= 2.04D-04
 IDIUse=3 WtCom= 9.98D-01 WtEn= 2.47D-03
 Coeff-Com: -0.801D-04 0.178D-04-0.659D-04 0.206D-03 0.457D-03-0.374D-03
 Coeff-Com:  0.930D-02-0.104D-01-0.667D-02 0.373D-01 0.310D-01-0.127D+00
 Coeff-Com: -0.175D+00 0.412D+00 0.114D+00-0.683D+00-0.155D+00 0.155D+01
 Coeff-En:   0.000D+00 0.000D+00 0.000D+00 0.000D+00 0.000D+00 0.000D+00
 Coeff-En:   0.000D+00 0.000D+00 0.000D+00 0.000D+00 0.000D+00 0.000D+00
 Coeff-En:   0.000D+00 0.000D+00 0.000D+00 0.000D+00 0.000D+00 0.100D+01
 Coeff:     -0.799D-04 0.178D-04-0.658D-04 0.205D-03 0.456D-03-0.373D-03
 Coeff:      0.927D-02-0.104D-01-0.666D-02 0.372D-01 0.309D-01-0.126D+00
 Coeff:     -0.175D+00 0.411D+00 0.114D+00-0.681D+00-0.155D+00 0.155D+01
 Gap=     0.102 Goal=   None    Shift=    0.000
 Gap=     0.154 Goal=   None    Shift=    0.000
 RMSDP=5.61D-05 MaxDP=8.33D-03 DE=-9.72D-04 OVMax= 1.73D-02

 Cycle  19  Pass 0  IDiag  1:
 RMSU=  2.88D-05    CP:  8.69D-01  1.00D+00  7.56D-01  3.43D-01  7.80D-01
                    CP:  9.01D-01  1.32D+00  2.43D+00  2.66D+00  3.00D+00
                    CP:  3.00D+00  3.00D+00  3.00D+00  3.00D+00  3.00D+00
                    CP:  3.00D+00  3.00D+00  2.26D+00
 E= -3084.23083140741     Delta-E=       -0.000696415536 Rises=F Damp=F
 DIIS: error= 2.49D-04 at cycle  19 NSaved=  19.
 NSaved=19 IEnMin=19 EnMin= -3084.23083140741     IErMin=18 ErrMin= 2.47D-04
 ErrMax= 2.49D-04  0.00D+00 EMaxC= 1.00D-01 BMatC= 1.27D-04 BMatP= 1.53D-04
 IDIUse=3 WtCom= 9.98D-01 WtEn= 2.47D-03
 Coeff-Com: -0.514D-03 0.624D-03-0.264D-06-0.757D-04 0.993D-03 0.113D-02
 Coeff-Com: -0.120D-01 0.146D-01 0.193D-02-0.551D-01 0.234D-01 0.246D+00
 Coeff-Com: -0.243D+00-0.293D+00 0.552D+00 0.346D+00-0.978D+00-0.259D+00
 Coeff-Com:  0.165D+01
 Coeff-En:   0.000D+00 0.000D+00 0.000D+00 0.000D+00 0.000D+00 0.000D+00
 Coeff-En:   0.000D+00 0.000D+00 0.000D+00 0.000D+00 0.000D+00 0.000D+00
 Coeff-En:   0.000D+00 0.000D+00 0.000D+00 0.000D+00 0.000D+00 0.000D+00
 Coeff-En:   0.100D+01
 Coeff:     -0.513D-03 0.622D-03-0.263D-06-0.755D-04 0.990D-03 0.113D-02
 Coeff:     -0.119D-01 0.145D-01 0.192D-02-0.549D-01 0.233D-01 0.245D+00
 Coeff:     -0.242D+00-0.292D+00 0.550D+00 0.345D+00-0.975D+00-0.258D+00
 Coeff:      0.165D+01
 Gap=     0.102 Goal=   None    Shift=    0.000
 Gap=     0.155 Goal=   None    Shift=    0.000
 RMSDP=4.26D-05 MaxDP=5.28D-03 DE=-6.96D-04 OVMax= 1.47D-02

 Cycle  20  Pass 0  IDiag  1:
 RMSU=  1.34D-05    CP:  8.69D-01  1.00D+00  7.56D-01  3.43D-01  7.79D-01
                    CP:  9.01D-01  1.32D+00  2.43D+00  2.65D+00  3.00D+00
                    CP:  3.00D+00  3.00D+00  3.00D+00  3.00D+00  3.00D+00
                    CP:  3.00D+00  3.00D+00  3.00D+00  2.18D+00
 E= -3084.23134155516     Delta-E=       -0.000510147749 Rises=F Damp=F
 DIIS: error= 2.47D-04 at cycle  20 NSaved=  20.
 NSaved=20 IEnMin=20 EnMin= -3084.23134155516     IErMin=18 ErrMin= 2.47D-04
 ErrMax= 2.47D-04  0.00D+00 EMaxC= 1.00D-01 BMatC= 1.12D-04 BMatP= 1.27D-04
 IDIUse=3 WtCom= 9.98D-01 WtEn= 2.47D-03
 Coeff-Com: -0.571D-04 0.235D-03-0.272D-04-0.611D-04-0.118D-03-0.493D-03
 Coeff-Com: -0.572D-02 0.829D-02-0.696D-03-0.119D-02-0.678D-01 0.967D-01
 Coeff-Com:  0.309D+00-0.351D+00-0.459D+00 0.796D+00 0.349D+00-0.155D+01
 Coeff-Com:  0.693D-01 0.180D+01
 Coeff-En:   0.000D+00 0.000D+00 0.000D+00 0.000D+00 0.000D+00 0.000D+00
 Coeff-En:   0.000D+00 0.000D+00 0.000D+00 0.000D+00 0.000D+00 0.000D+00
 Coeff-En:   0.000D+00 0.000D+00 0.000D+00 0.000D+00 0.000D+00 0.000D+00
 Coeff-En:   0.000D+00 0.100D+01
 Coeff:     -0.570D-04 0.234D-03-0.272D-04-0.610D-04-0.118D-03-0.492D-03
 Coeff:     -0.571D-02 0.827D-02-0.694D-03-0.118D-02-0.676D-01 0.964D-01
 Coeff:      0.309D+00-0.350D+00-0.458D+00 0.794D+00 0.348D+00-0.154D+01
 Coeff:      0.691D-01 0.180D+01
 Gap=     0.102 Goal=   None    Shift=    0.000
 Gap=     0.156 Goal=   None    Shift=    0.000
 RMSDP=5.11D-05 MaxDP=6.82D-03 DE=-5.10D-04 OVMax= 1.80D-02

 Cycle  21  Pass 0  IDiag  1:
 Restarting incremental Fock formation.
 E= -3084.23191393642     Delta-E=       -0.000572381257 Rises=F Damp=F
 DIIS: error= 2.24D-04 at cycle  21 NSaved=  20.
 NSaved=20 IEnMin=20 EnMin= -3084.23191393642     IErMin=20 ErrMin= 2.24D-04
 ErrMax= 2.24D-04  0.00D+00 EMaxC= 1.00D-01 BMatC= 9.31D-05 BMatP= 1.12D-04
 IDIUse=3 WtCom= 9.98D-01 WtEn= 2.24D-03
 Coeff-Com:  0.219D-03-0.268D-03-0.476D-04-0.312D-03-0.987D-03 0.102D-01
 Coeff-Com: -0.644D-02-0.225D-02 0.236D-01-0.285D-01-0.187D+00 0.295D+00
 Coeff-Com:  0.181D+00-0.627D+00-0.136D+00 0.872D+00 0.684D-01-0.116D+01
 Coeff-Com: -0.585D+00 0.228D+01
 Coeff-En:   0.000D+00 0.000D+00 0.000D+00 0.000D+00 0.000D+00 0.000D+00
 Coeff-En:   0.000D+00 0.000D+00 0.000D+00 0.000D+00 0.000D+00 0.000D+00
 Coeff-En:   0.000D+00 0.000D+00 0.000D+00 0.000D+00 0.000D+00 0.000D+00
 Coeff-En:   0.000D+00 0.100D+01
 Coeff:      0.218D-03-0.268D-03-0.475D-04-0.312D-03-0.985D-03 0.102D-01
 Coeff:     -0.642D-02-0.224D-02 0.235D-01-0.285D-01-0.186D+00 0.295D+00
 Coeff:      0.181D+00-0.625D+00-0.136D+00 0.870D+00 0.682D-01-0.116D+01
 Coeff:     -0.583D+00 0.228D+01
 Gap=     0.104 Goal=   None    Shift=    0.000
 Gap=     0.157 Goal=   None    Shift=    0.000
 RMSDP=8.42D-05 MaxDP=1.14D-02 DE=-5.72D-04 OVMax= 3.45D-02

 Cycle  22  Pass 0  IDiag  1:
 RMSU=  8.42D-05    CP:  1.00D+00
 E= -3084.23270579330     Delta-E=       -0.000791856886 Rises=F Damp=F
 DIIS: error= 1.66D-04 at cycle  22 NSaved=  20.
 NSaved=20 IEnMin=20 EnMin= -3084.23270579330     IErMin=20 ErrMin= 1.66D-04
 ErrMax= 1.66D-04  0.00D+00 EMaxC= 1.00D-01 BMatC= 5.96D-05 BMatP= 9.31D-05
 IDIUse=3 WtCom= 9.98D-01 WtEn= 1.66D-03
 Coeff-Com: -0.656D-03 0.784D-03 0.489D-03-0.196D-03 0.402D-02-0.708D-02
 Coeff-Com:  0.154D-01-0.138D-02 0.236D-01-0.115D+00-0.103D+00 0.288D+00
 Coeff-Com:  0.178D+00-0.478D+00-0.229D+00 0.107D+01 0.564D+00-0.178D+01
 Coeff-Com: -0.255D+00 0.182D+01
 Coeff-En:   0.000D+00 0.000D+00 0.000D+00 0.000D+00 0.000D+00 0.000D+00
 Coeff-En:   0.000D+00 0.000D+00 0.000D+00 0.000D+00 0.000D+00 0.000D+00
 Coeff-En:   0.000D+00 0.000D+00 0.000D+00 0.000D+00 0.000D+00 0.000D+00
 Coeff-En:   0.000D+00 0.100D+01
 Coeff:     -0.655D-03 0.783D-03 0.488D-03-0.196D-03 0.402D-02-0.707D-02
 Coeff:      0.154D-01-0.137D-02 0.236D-01-0.115D+00-0.103D+00 0.288D+00
 Coeff:      0.178D+00-0.478D+00-0.229D+00 0.107D+01 0.563D+00-0.177D+01
 Coeff:     -0.255D+00 0.182D+01
 Gap=     0.104 Goal=   None    Shift=    0.000
 Gap=     0.157 Goal=   None    Shift=    0.000
 RMSDP=4.76D-05 MaxDP=6.58D-03 DE=-7.92D-04 OVMax= 1.72D-02

 Cycle  23  Pass 0  IDiag  1:
 RMSU=  1.93D-05    CP:  1.00D+00  1.52D+00
 E= -3084.23305973085     Delta-E=       -0.000353937543 Rises=F Damp=F
 DIIS: error= 1.31D-04 at cycle  23 NSaved=  20.
 NSaved=20 IEnMin=20 EnMin= -3084.23305973085     IErMin=20 ErrMin= 1.31D-04
 ErrMax= 1.31D-04  0.00D+00 EMaxC= 1.00D-01 BMatC= 4.03D-05 BMatP= 5.96D-05
 IDIUse=3 WtCom= 9.99D-01 WtEn= 1.31D-03
 Coeff-Com:  0.220D-04 0.100D-03-0.103D-03-0.645D-02 0.738D-02-0.345D-02
 Coeff-Com: -0.222D-01 0.151D-01 0.130D+00-0.151D+00-0.131D+00 0.336D+00
 Coeff-Com:  0.166D+00-0.531D+00-0.284D+00 0.106D+01 0.181D+00-0.136D+01
 Coeff-Com:  0.233D+00 0.136D+01
 Coeff-En:   0.000D+00 0.000D+00 0.000D+00 0.000D+00 0.000D+00 0.000D+00
 Coeff-En:   0.000D+00 0.000D+00 0.000D+00 0.000D+00 0.000D+00 0.000D+00
 Coeff-En:   0.000D+00 0.000D+00 0.000D+00 0.000D+00 0.000D+00 0.000D+00
 Coeff-En:   0.000D+00 0.100D+01
 Coeff:      0.220D-04 0.999D-04-0.103D-03-0.644D-02 0.737D-02-0.345D-02
 Coeff:     -0.222D-01 0.151D-01 0.129D+00-0.151D+00-0.131D+00 0.336D+00
 Coeff:      0.165D+00-0.530D+00-0.284D+00 0.106D+01 0.181D+00-0.135D+01
 Coeff:      0.233D+00 0.136D+01
 Gap=     0.104 Goal=   None    Shift=    0.000
 Gap=     0.157 Goal=   None    Shift=    0.000
 RMSDP=2.92D-05 MaxDP=3.37D-03 DE=-3.54D-04 OVMax= 1.14D-02

 Cycle  24  Pass 0  IDiag  1:
 RMSU=  7.81D-06    CP:  1.00D+00  1.81D+00  1.71D+00
 E= -3084.23324746734     Delta-E=       -0.000187736488 Rises=F Damp=F
 DIIS: error= 1.32D-04 at cycle  24 NSaved=  20.
 NSaved=20 IEnMin=20 EnMin= -3084.23324746734     IErMin=19 ErrMin= 1.31D-04
 ErrMax= 1.32D-04  0.00D+00 EMaxC= 1.00D-01 BMatC= 3.45D-05 BMatP= 4.03D-05
 IDIUse=3 WtCom= 9.99D-01 WtEn= 1.31D-03
 Coeff-Com:  0.778D-04 0.414D-04-0.433D-02 0.593D-02-0.421D-02-0.115D-01
 Coeff-Com:  0.804D-02 0.961D-01-0.785D-01-0.127D+00 0.175D+00 0.171D+00
 Coeff-Com: -0.266D+00-0.407D+00 0.648D+00 0.333D+00-0.783D+00-0.759D-01
 Coeff-Com:  0.605D+00 0.714D+00
 Coeff-En:   0.000D+00 0.000D+00 0.000D+00 0.000D+00 0.000D+00 0.000D+00
 Coeff-En:   0.000D+00 0.000D+00 0.000D+00 0.000D+00 0.000D+00 0.000D+00
 Coeff-En:   0.000D+00 0.000D+00 0.000D+00 0.000D+00 0.000D+00 0.000D+00
 Coeff-En:   0.000D+00 0.100D+01
 Coeff:      0.777D-04 0.414D-04-0.432D-02 0.593D-02-0.421D-02-0.115D-01
 Coeff:      0.803D-02 0.960D-01-0.784D-01-0.126D+00 0.175D+00 0.171D+00
 Coeff:     -0.266D+00-0.407D+00 0.648D+00 0.333D+00-0.782D+00-0.758D-01
 Coeff:      0.605D+00 0.715D+00
 Gap=     0.104 Goal=   None    Shift=    0.000
 Gap=     0.157 Goal=   None    Shift=    0.000
 RMSDP=1.32D-05 MaxDP=1.69D-03 DE=-1.88D-04 OVMax= 5.82D-03

 Cycle  25  Pass 0  IDiag  1:
 RMSU=  2.82D-06    CP:  1.00D+00  1.93D+00  1.99D+00  1.62D+00
 E= -3084.23332925966     Delta-E=       -0.000081792323 Rises=F Damp=F
 DIIS: error= 1.38D-04 at cycle  25 NSaved=  20.
 NSaved=20 IEnMin=20 EnMin= -3084.23332925966     IErMin=18 ErrMin= 1.31D-04
 ErrMax= 1.38D-04  0.00D+00 EMaxC= 1.00D-01 BMatC= 3.31D-05 BMatP= 3.45D-05
 IDIUse=3 WtCom= 9.99D-01 WtEn= 1.31D-03
 Coeff-Com:  0.248D-04-0.219D-02 0.249D-02-0.185D-02-0.378D-02 0.192D-02
 Coeff-Com:  0.490D-01-0.340D-01-0.752D-01 0.942D-01 0.988D-01-0.134D+00
 Coeff-Com: -0.265D+00 0.458D+00 0.153D+00-0.504D+00 0.482D-01 0.322D+00
 Coeff-Com: -0.274D+00 0.107D+01
 Coeff-En:   0.000D+00 0.000D+00 0.000D+00 0.000D+00 0.000D+00 0.000D+00
 Coeff-En:   0.000D+00 0.000D+00 0.000D+00 0.000D+00 0.000D+00 0.000D+00
 Coeff-En:   0.000D+00 0.000D+00 0.000D+00 0.000D+00 0.000D+00 0.000D+00
 Coeff-En:   0.000D+00 0.100D+01
 Coeff:      0.248D-04-0.219D-02 0.249D-02-0.185D-02-0.377D-02 0.191D-02
 Coeff:      0.490D-01-0.339D-01-0.751D-01 0.941D-01 0.987D-01-0.134D+00
 Coeff:     -0.265D+00 0.457D+00 0.152D+00-0.503D+00 0.481D-01 0.322D+00
 Coeff:     -0.273D+00 0.107D+01
 Gap=     0.104 Goal=   None    Shift=    0.000
 Gap=     0.158 Goal=   None    Shift=    0.000
 RMSDP=7.55D-06 MaxDP=1.15D-03 DE=-8.18D-05 OVMax= 4.28D-03

 Cycle  26  Pass 0  IDiag  1:
 RMSU=  1.36D-06    CP:  1.00D+00  1.97D+00  2.20D+00  2.24D+00  1.98D+00
 E= -3084.23337385195     Delta-E=       -0.000044592291 Rises=F Damp=F
 DIIS: error= 1.40D-04 at cycle  26 NSaved=  20.
 NSaved=20 IEnMin=20 EnMin= -3084.23337385195     IErMin=17 ErrMin= 1.31D-04
 ErrMax= 1.40D-04  0.00D+00 EMaxC= 1.00D-01 BMatC= 3.38D-05 BMatP= 3.31D-05
 IDIUse=3 WtCom= 9.99D-01 WtEn= 1.31D-03
 Coeff-Com: -0.986D-03 0.111D-02-0.624D-03 0.557D-02-0.241D-02 0.151D-01
 Coeff-Com:  0.253D-01-0.826D-01-0.282D-01 0.977D-01 0.826D-01-0.379D+00
 Coeff-Com:  0.165D+00 0.271D+00-0.356D-01-0.170D+00-0.253D+00 0.117D+00
 Coeff-Com:  0.459D+01-0.341D+01
 Coeff-En:   0.000D+00 0.000D+00 0.000D+00 0.000D+00 0.000D+00 0.000D+00
 Coeff-En:   0.000D+00 0.000D+00 0.000D+00 0.000D+00 0.000D+00 0.000D+00
 Coeff-En:   0.000D+00 0.000D+00 0.000D+00 0.000D+00 0.000D+00 0.000D+00
 Coeff-En:   0.000D+00 0.100D+01
 Coeff:     -0.985D-03 0.111D-02-0.623D-03 0.556D-02-0.241D-02 0.151D-01
 Coeff:      0.252D-01-0.825D-01-0.282D-01 0.975D-01 0.825D-01-0.378D+00
 Coeff:      0.165D+00 0.271D+00-0.356D-01-0.170D+00-0.253D+00 0.117D+00
 Coeff:      0.458D+01-0.341D+01
 Gap=     0.104 Goal=   None    Shift=    0.000
 Gap=     0.157 Goal=   None    Shift=    0.000
 RMSDP=2.01D-05 MaxDP=2.87D-03 DE=-4.46D-05 OVMax= 1.17D-02

 Cycle  27  Pass 0  IDiag  1:
 RMSU=  2.79D-06    CP:  1.00D+00  1.93D+00  1.53D+00  7.81D-01 -8.53D-01
                    CP: -2.61D+00
 E= -3084.23326822350     Delta-E=        0.000105628447 Rises=F Damp=F
 DIIS: error= 1.47D-04 at cycle  27 NSaved=  20.
 NSaved=20 IEnMin=19 EnMin= -3084.23337385195     IErMin=16 ErrMin= 1.31D-04
 ErrMax= 1.47D-04  0.00D+00 EMaxC= 1.00D-01 BMatC= 3.11D-05 BMatP= 3.31D-05
 IDIUse=3 WtCom= 9.99D-01 WtEn= 1.31D-03
 Rare condition: small coef for last iteration:  0.000D+00
 Coeff-Com: -0.236D-02 0.827D-02 0.858D-02-0.367D-01-0.612D-01 0.179D+00
 Coeff-Com: -0.259D-01-0.271D+00 0.647D-01 0.520D+00-0.228D+00-0.405D+00
 Coeff-Com:  0.290D+00 0.590D+00-0.176D+00-0.689D+00-0.308D+01 0.683D+01
 Coeff-Com: -0.723D+01 0.471D+01
 Coeff-En:   0.000D+00 0.000D+00 0.000D+00 0.000D+00 0.000D+00 0.000D+00
 Coeff-En:   0.000D+00 0.000D+00 0.000D+00 0.000D+00 0.000D+00 0.000D+00
 Coeff-En:   0.000D+00 0.000D+00 0.000D+00 0.000D+00 0.000D+00 0.000D+00
 Coeff-En:   0.000D+00 0.100D+01
 Coeff:     -0.236D-02 0.827D-02 0.858D-02-0.367D-01-0.612D-01 0.179D+00
 Coeff:     -0.259D-01-0.271D+00 0.647D-01 0.520D+00-0.228D+00-0.405D+00
 Coeff:      0.290D+00 0.590D+00-0.176D+00-0.689D+00-0.308D+01 0.683D+01
 Coeff:     -0.723D+01 0.471D+01
 Gap=     0.103 Goal=   None    Shift=    0.000
 Gap=     0.156 Goal=   None    Shift=    0.000
 RMSDP=8.96D-05 MaxDP=1.22D-02 DE= 1.06D-04 OVMax= 4.80D-02

 Cycle  28  Pass 0  IDiag  1:
 RMSU=  3.21D-05    CP:  1.00D+00  1.26D+00 -7.01D-01 -3.00D+00 -3.00D+00
                    CP: -3.00D+00  3.00D+00
 E= -3084.23278212463     Delta-E=        0.000486098876 Rises=F Damp=F
 DIIS: error= 9.16D-05 at cycle  28 NSaved=  20.
 NSaved=20 IEnMin=18 EnMin= -3084.23337385195     IErMin=20 ErrMin= 9.16D-05
 ErrMax= 9.16D-05  0.00D+00 EMaxC= 1.00D-01 BMatC= 2.68D-05 BMatP= 3.11D-05
 IDIUse=1 WtCom= 1.00D+00 WtEn= 0.00D+00
 Coeff-Com:  0.909D-02-0.149D-01-0.781D-02-0.367D-01-0.900D-02 0.176D+00
 Coeff-Com:  0.348D-01-0.269D+00 0.123D+00 0.548D+00-0.197D+00-0.790D+00
 Coeff-Com:  0.104D+00 0.448D+00 0.227D+00-0.379D+01-0.200D+01 0.175D+01
 Coeff-Com:  0.303D+01 0.167D+01
 Coeff:      0.909D-02-0.149D-01-0.781D-02-0.367D-01-0.900D-02 0.176D+00
 Coeff:      0.348D-01-0.269D+00 0.123D+00 0.548D+00-0.197D+00-0.790D+00
 Coeff:      0.104D+00 0.448D+00 0.227D+00-0.379D+01-0.200D+01 0.175D+01
 Coeff:      0.303D+01 0.167D+01
 Gap=     0.103 Goal=   None    Shift=    0.000
 Gap=     0.156 Goal=   None    Shift=    0.000
 RMSDP=5.43D-05 MaxDP=7.11D-03 DE= 4.86D-04 OVMax= 3.13D-02

 Problem detected with inexpensive integrals.
 Switching to full accuracy and repeating last cycle.
 Cycle  29  Pass 1  IDiag  1:
 E= -3084.23278212475     Delta-E=       -0.000000000126 Rises=F Damp=F
 DIIS: error= 9.16D-05 at cycle   1 NSaved=   1.
 NSaved= 1 IEnMin= 1 EnMin= -3084.23278212475     IErMin= 1 ErrMin= 9.16D-05
 ErrMax= 9.16D-05  0.00D+00 EMaxC= 1.00D-01 BMatC= 2.68D-05 BMatP= 2.68D-05
 IDIUse=1 WtCom= 1.00D+00 WtEn= 0.00D+00
 Coeff-Com:  0.100D+01
 Coeff:      0.100D+01
 Gap=     0.104 Goal=   None    Shift=    0.000
 Gap=     0.156 Goal=   None    Shift=    0.000
 RMSDP=7.51D-06 MaxDP=7.69D-04 DE=-1.26D-10 OVMax= 3.10D-03

 Cycle  30  Pass 1  IDiag  1:
 RMSU=  7.51D-06    CP:  1.00D+00
 E= -3084.23282253497     Delta-E=       -0.000040410217 Rises=F Damp=F
 DIIS: error= 9.51D-05 at cycle   2 NSaved=   2.
 NSaved= 2 IEnMin= 2 EnMin= -3084.23282253497     IErMin= 1 ErrMin= 9.16D-05
 ErrMax= 9.51D-05  0.00D+00 EMaxC= 1.00D-01 BMatC= 2.41D-05 BMatP= 2.68D-05
 IDIUse=1 WtCom= 1.00D+00 WtEn= 0.00D+00
 Coeff-Com:  0.130D+00 0.870D+00
 Coeff:      0.130D+00 0.870D+00
 Gap=     0.104 Goal=   None    Shift=    0.000
 Gap=     0.156 Goal=   None    Shift=    0.000
 RMSDP=6.27D-06 MaxDP=7.98D-04 DE=-4.04D-05 OVMax= 2.62D-03

 Cycle  31  Pass 1  IDiag  1:
 RMSU=  2.14D-06    CP:  1.00D+00  1.78D+00
 E= -3084.23285633764     Delta-E=       -0.000033802675 Rises=F Damp=F
 DIIS: error= 9.16D-05 at cycle   3 NSaved=   3.
 NSaved= 3 IEnMin= 3 EnMin= -3084.23285633764     IErMin= 1 ErrMin= 9.16D-05
 ErrMax= 9.16D-05  0.00D+00 EMaxC= 1.00D-01 BMatC= 2.32D-05 BMatP= 2.41D-05
 IDIUse=1 WtCom= 1.00D+00 WtEn= 0.00D+00
 Coeff-Com: -0.523D+00 0.345D-01 0.149D+01
 Coeff:     -0.523D+00 0.345D-01 0.149D+01
 Gap=     0.104 Goal=   None    Shift=    0.000
 Gap=     0.157 Goal=   None    Shift=    0.000
 RMSDP=1.39D-05 MaxDP=1.68D-03 DE=-3.38D-05 OVMax= 6.04D-03

 Cycle  32  Pass 1  IDiag  1:
 RMSU=  4.65D-06    CP:  1.00D+00  3.00D+00  2.48D+00
 E= -3084.23293067868     Delta-E=       -0.000074341031 Rises=F Damp=F
 DIIS: error= 1.03D-04 at cycle   4 NSaved=   4.
 NSaved= 4 IEnMin= 4 EnMin= -3084.23293067868     IErMin= 1 ErrMin= 9.16D-05
 ErrMax= 1.03D-04  0.00D+00 EMaxC= 1.00D-01 BMatC= 2.23D-05 BMatP= 2.32D-05
 IDIUse=3 WtCom= 9.99D-01 WtEn= 1.03D-03
 Coeff-Com: -0.661D-02-0.180D+00-0.628D-01 0.125D+01
 Coeff-En:   0.000D+00 0.000D+00 0.000D+00 0.100D+01
 Coeff:     -0.660D-02-0.180D+00-0.627D-01 0.125D+01
 Gap=     0.104 Goal=   None    Shift=    0.000
 Gap=     0.157 Goal=   None    Shift=    0.000
 RMSDP=1.19D-05 MaxDP=1.54D-03 DE=-7.43D-05 OVMax= 5.48D-03

 Cycle  33  Pass 1  IDiag  1:
 RMSU=  3.73D-06    CP:  1.00D+00  3.00D+00  3.00D+00  3.00D+00
 E= -3084.23299377098     Delta-E=       -0.000063092306 Rises=F Damp=F
 DIIS: error= 1.09D-04 at cycle   5 NSaved=   5.
 NSaved= 5 IEnMin= 5 EnMin= -3084.23299377098     IErMin= 1 ErrMin= 9.16D-05
 ErrMax= 1.09D-04  0.00D+00 EMaxC= 1.00D-01 BMatC= 2.24D-05 BMatP= 2.23D-05
 IDIUse=3 WtCom= 9.99D-01 WtEn= 1.09D-03
 Coeff-Com: -0.113D-01-0.244D+00-0.734D-01 0.156D+01-0.228D+00
 Coeff-En:   0.000D+00 0.000D+00 0.000D+00 0.000D+00 0.100D+01
 Coeff:     -0.113D-01-0.243D+00-0.734D-01 0.155D+01-0.226D+00
 Gap=     0.104 Goal=   None    Shift=    0.000
 Gap=     0.157 Goal=   None    Shift=    0.000
 RMSDP=1.19D-06 MaxDP=1.63D-04 DE=-6.31D-05 OVMax= 6.10D-04

 Cycle  34  Pass 1  IDiag  1:
 RMSU=  8.11D-07    CP:  1.00D+00  3.00D+00  3.00D+00  3.00D+00  7.67D-01
 E= -3084.23298760011     Delta-E=        0.000006170869 Rises=F Damp=F
 DIIS: error= 1.09D-04 at cycle   6 NSaved=   6.
 NSaved= 6 IEnMin= 5 EnMin= -3084.23299377098     IErMin= 1 ErrMin= 9.16D-05
 ErrMax= 1.09D-04  0.00D+00 EMaxC= 1.00D-01 BMatC= 2.23D-05 BMatP= 2.23D-05
 IDIUse=3 WtCom= 9.99D-01 WtEn= 1.09D-03
 Large coefficients: NSaved=  6 BigCof=   31.94 CofMax=   10.00 Det=-1.18D-09
 Inversion failed.  Reducing to  5 matrices.
 Large coefficients: NSaved=  5 BigCof=   21.11 CofMax=   10.00 Det=-1.77D-09
 Inversion failed.  Reducing to  4 matrices.
 Large coefficients: NSaved=  4 BigCof=   20.47 CofMax=   10.00 Det=-1.83D-09
 Inversion failed.  Reducing to  3 matrices.
 Large coefficients: NSaved=  3 BigCof=   18.10 CofMax=   10.00 Det=-2.06D-09
 Inversion failed.  Reducing to  2 matrices.
 Large coefficients: NSaved=  2 BigCof=   18.74 CofMax=   10.00 Det=-2.13D-09
 Coeff-Com: -0.177D+02 0.187D+02
 Coeff-En:   0.000D+00 0.100D+01
 Coeff:     -0.177D+02 0.187D+02
 Gap=     0.104 Goal=   None    Shift=    0.000
 Gap=     0.157 Goal=   None    Shift=    0.000
 RMSDP=1.42D-05 MaxDP=2.01D-03 DE= 6.17D-06 OVMax= 7.64D-03

 Cycle  35  Pass 1  IDiag  1:
 RMSU=  3.46D-06    CP:  1.00D+00  3.00D+00  1.80D+00  3.86D-01  4.96D-02
                    CP:  1.19D+00
 E= -3084.23291706423     Delta-E=        0.000070535882 Rises=F Damp=F
 DIIS: error= 1.00D-04 at cycle   7 NSaved=   3.
 NSaved= 3 IEnMin= 1 EnMin= -3084.23299377098     IErMin= 3 ErrMin= 1.00D-04
 ErrMax= 1.00D-04  0.00D+00 EMaxC= 1.00D-01 BMatC= 2.13D-05 BMatP= 2.23D-05
 IDIUse=3 WtCom= 9.99D-01 WtEn= 1.00D-03
 Large coefficients: NSaved=  3 BigCof=   21.56 CofMax=   10.00 Det=-2.09D-09
 Inversion failed.  Reducing to  2 matrices.
 Coeff-Com: -0.631D+00 0.163D+01
 Coeff-En:   0.000D+00 0.100D+01
 Coeff:     -0.630D+00 0.163D+01
 Gap=     0.104 Goal=   None    Shift=    0.000
 Gap=     0.157 Goal=   None    Shift=    0.000
 RMSDP=2.99D-06 MaxDP=3.83D-04 DE= 7.05D-05 OVMax= 1.69D-03

 Cycle  36  Pass 1  IDiag  1:
 RMSU=  1.05D-06    CP:  1.00D+00  3.00D+00  1.56D+00 -1.15D-02  8.19D-02
                    CP:  1.91D+00  1.56D+00
 E= -3084.23290899097     Delta-E=        0.000008073259 Rises=F Damp=F
 DIIS: error= 9.51D-05 at cycle   8 NSaved=   3.
 NSaved= 3 IEnMin= 1 EnMin= -3084.23298760011     IErMin= 3 ErrMin= 9.51D-05
 ErrMax= 9.51D-05  0.00D+00 EMaxC= 1.00D-01 BMatC= 2.07D-05 BMatP= 2.13D-05
 IDIUse=1 WtCom= 1.00D+00 WtEn= 0.00D+00
 Coeff-Com: -0.534D+01 0.293D+01 0.341D+01
 Coeff:     -0.534D+01 0.293D+01 0.341D+01
 Gap=     0.104 Goal=   None    Shift=    0.000
 Gap=     0.156 Goal=   None    Shift=    0.000
 RMSDP=7.76D-05 MaxDP=1.10D-02 DE= 8.07D-06 OVMax= 4.33D-02

 Cycle  37  Pass 1  IDiag  1:
 RMSU=  3.05D-05    CP:  1.00D+00 -3.00D+00 -3.00D+00 -3.00D+00 -3.00D+00
                    CP:  3.00D+00  3.00D+00  2.47D+00
 E= -3084.23262202893     Delta-E=        0.000286962046 Rises=F Damp=F
 DIIS: error= 8.80D-05 at cycle   9 NSaved=   4.
 NSaved= 4 IEnMin= 1 EnMin= -3084.23298760011     IErMin= 4 ErrMin= 8.80D-05
 ErrMax= 8.80D-05  0.00D+00 EMaxC= 1.00D-01 BMatC= 1.46D-05 BMatP= 2.07D-05
 IDIUse=1 WtCom= 1.00D+00 WtEn= 0.00D+00
 Coeff-Com:  0.205D+01-0.188D+01-0.743D+00 0.158D+01
 Coeff:      0.205D+01-0.188D+01-0.743D+00 0.158D+01
 Gap=     0.104 Goal=   None    Shift=    0.000
 Gap=     0.155 Goal=   None    Shift=    0.000
 RMSDP=1.38D-05 MaxDP=2.00D-03 DE= 2.87D-04 OVMax= 8.29D-03

 Cycle  38  Pass 1  IDiag  1:
 RMSU=  8.99D-06    CP:  1.00D+00 -3.00D+00 -3.00D+00 -3.00D+00 -3.00D+00
                    CP:  3.00D+00  3.00D+00  3.00D+00  1.34D+00
 E= -3084.23260926586     Delta-E=        0.000012763063 Rises=F Damp=F
 DIIS: error= 8.50D-05 at cycle  10 NSaved=   5.
 NSaved= 5 IEnMin= 1 EnMin= -3084.23298760011     IErMin= 5 ErrMin= 8.50D-05
 ErrMax= 8.50D-05  0.00D+00 EMaxC= 1.00D-01 BMatC= 1.22D-05 BMatP= 1.46D-05
 IDIUse=1 WtCom= 1.00D+00 WtEn= 0.00D+00
 Coeff-Com:  0.952D+01-0.635D+01-0.502D+01 0.960D+00 0.189D+01
 Coeff:      0.952D+01-0.635D+01-0.502D+01 0.960D+00 0.189D+01
 Gap=     0.103 Goal=   None    Shift=    0.000
 Gap=     0.155 Goal=   None    Shift=    0.000
 RMSDP=1.85D-05 MaxDP=1.92D-03 DE= 1.28D-05 OVMax= 8.61D-03

 Cycle  39  Pass 1  IDiag  1:
 RMSU=  8.22D-06    CP:  1.00D+00 -3.00D+00 -3.00D+00 -3.00D+00 -3.00D+00
                    CP:  3.00D+00  3.00D+00  3.00D+00  1.86D+00  1.55D+00
 E= -3084.23263375827     Delta-E=       -0.000024492405 Rises=F Damp=F
 DIIS: error= 7.59D-05 at cycle  11 NSaved=   6.
 NSaved= 6 IEnMin= 1 EnMin= -3084.23298760011     IErMin= 6 ErrMin= 7.59D-05
 ErrMax= 7.59D-05  0.00D+00 EMaxC= 1.00D-01 BMatC= 7.88D-06 BMatP= 1.22D-05
 IDIUse=1 WtCom= 1.00D+00 WtEn= 0.00D+00
 Coeff-Com:  0.470D+01-0.321D+01-0.247D+01 0.347D+00-0.785D-01 0.171D+01
 Coeff:      0.470D+01-0.321D+01-0.247D+01 0.347D+00-0.785D-01 0.171D+01
 Gap=     0.103 Goal=   None    Shift=    0.000
 Gap=     0.155 Goal=   None    Shift=    0.000
 RMSDP=2.78D-05 MaxDP=3.46D-03 DE=-2.45D-05 OVMax= 1.49D-02

 Cycle  40  Pass 1  IDiag  1:
 RMSU=  2.39D-06    CP:  1.00D+00 -3.00D+00 -3.00D+00 -3.00D+00 -3.00D+00
                    CP:  3.00D+00  3.00D+00  3.00D+00  2.63D+00  2.85D+00
                    CP:  2.05D+00
 E= -3084.23264757127     Delta-E=       -0.000013813002 Rises=F Damp=F
 DIIS: error= 6.53D-05 at cycle  12 NSaved=   7.
 NSaved= 7 IEnMin= 1 EnMin= -3084.23298760011     IErMin= 7 ErrMin= 6.53D-05
 ErrMax= 6.53D-05  0.00D+00 EMaxC= 1.00D-01 BMatC= 4.81D-06 BMatP= 7.88D-06
 IDIUse=1 WtCom= 1.00D+00 WtEn= 0.00D+00
 Coeff-Com:  0.338D+00-0.291D+00-0.167D+00 0.446D+00-0.442D+00-0.342D+00
 Coeff-Com:  0.146D+01
 Coeff:      0.338D+00-0.291D+00-0.167D+00 0.446D+00-0.442D+00-0.342D+00
 Coeff:      0.146D+01
 Gap=     0.103 Goal=   None    Shift=    0.000
 Gap=     0.155 Goal=   None    Shift=    0.000
 RMSDP=1.43D-05 MaxDP=1.83D-03 DE=-1.38D-05 OVMax= 7.22D-03

 Cycle  41  Pass 1  IDiag  1:
 RMSU=  4.40D-06    CP:  1.00D+00 -3.00D+00 -3.00D+00 -3.00D+00 -3.00D+00
                    CP:  3.00D+00  3.00D+00  3.00D+00  3.00D+00  3.00D+00
                    CP:  2.66D+00  2.19D+00
 E= -3084.23265776680     Delta-E=       -0.000010195530 Rises=F Damp=F
 DIIS: error= 5.79D-05 at cycle  13 NSaved=   8.
 NSaved= 8 IEnMin= 1 EnMin= -3084.23298760011     IErMin= 8 ErrMin= 5.79D-05
 ErrMax= 5.79D-05  0.00D+00 EMaxC= 1.00D-01 BMatC= 3.79D-06 BMatP= 4.81D-06
 IDIUse=1 WtCom= 1.00D+00 WtEn= 0.00D+00
 Coeff-Com: -0.711D+00 0.501D+00 0.363D+00 0.103D-02 0.119D+00-0.629D+00
 Coeff-Com:  0.379D-01 0.132D+01
 Coeff:     -0.711D+00 0.501D+00 0.363D+00 0.103D-02 0.119D+00-0.629D+00
 Coeff:      0.379D-01 0.132D+01
 Gap=     0.104 Goal=   None    Shift=    0.000
 Gap=     0.155 Goal=   None    Shift=    0.000
 RMSDP=7.43D-06 MaxDP=9.13D-04 DE=-1.02D-05 OVMax= 2.89D-03

 Cycle  42  Pass 1  IDiag  1:
 RMSU=  5.20D-06    CP:  1.00D+00 -3.00D+00 -3.00D+00 -3.00D+00 -3.00D+00
                    CP:  3.00D+00  3.00D+00  3.00D+00  3.00D+00  3.00D+00
                    CP:  3.00D+00  3.00D+00  1.67D+00
 E= -3084.23266783709     Delta-E=       -0.000010070287 Rises=F Damp=F
 DIIS: error= 5.36D-05 at cycle  14 NSaved=   9.
 NSaved= 9 IEnMin= 1 EnMin= -3084.23298760011     IErMin= 9 ErrMin= 5.36D-05
 ErrMax= 5.36D-05  0.00D+00 EMaxC= 1.00D-01 BMatC= 3.33D-06 BMatP= 3.79D-06
 IDIUse=1 WtCom= 1.00D+00 WtEn= 0.00D+00
 Coeff-Com:  0.442D+00-0.196D+00-0.280D+00-0.395D+00 0.201D+00 0.883D+00
 Coeff-Com: -0.102D+01-0.103D+01 0.240D+01
 Coeff:      0.442D+00-0.196D+00-0.280D+00-0.395D+00 0.201D+00 0.883D+00
 Coeff:     -0.102D+01-0.103D+01 0.240D+01
 Gap=     0.103 Goal=   None    Shift=    0.000
 Gap=     0.155 Goal=   None    Shift=    0.000
 RMSDP=9.29D-06 MaxDP=1.48D-03 DE=-1.01D-05 OVMax= 4.03D-03

 Cycle  43  Pass 1  IDiag  1:
 RMSU=  7.78D-06    CP:  1.00D+00 -3.00D+00 -3.00D+00 -3.00D+00 -3.00D+00
                    CP:  3.00D+00  3.00D+00  3.00D+00  3.00D+00  3.00D+00
                    CP:  3.00D+00  3.00D+00  1.72D+00  1.97D+00
 E= -3084.23268578771     Delta-E=       -0.000017950619 Rises=F Damp=F
 DIIS: error= 4.69D-05 at cycle  15 NSaved=  10.
 NSaved=10 IEnMin= 1 EnMin= -3084.23298760011     IErMin=10 ErrMin= 4.69D-05
 ErrMax= 4.69D-05  0.00D+00 EMaxC= 1.00D-01 BMatC= 2.84D-06 BMatP= 3.33D-06
 IDIUse=1 WtCom= 1.00D+00 WtEn= 0.00D+00
 Coeff-Com:  0.134D+01-0.909D+00-0.736D+00 0.161D+00-0.111D+00 0.611D+00
 Coeff-Com:  0.411D-01-0.137D+01-0.626D-02 0.198D+01
 Coeff:      0.134D+01-0.909D+00-0.736D+00 0.161D+00-0.111D+00 0.611D+00
 Coeff:      0.411D-01-0.137D+01-0.626D-02 0.198D+01
 Gap=     0.103 Goal=   None    Shift=    0.000
 Gap=     0.155 Goal=   None    Shift=    0.000
 RMSDP=1.22D-05 MaxDP=1.89D-03 DE=-1.80D-05 OVMax= 5.25D-03

 Cycle  44  Pass 1  IDiag  1:
 RMSU=  1.75D-06    CP:  1.00D+00 -3.00D+00 -3.00D+00 -3.00D+00 -3.00D+00
                    CP:  3.00D+00  3.00D+00  3.00D+00  3.00D+00  3.00D+00
                    CP:  3.00D+00  3.00D+00  2.04D+00  3.00D+00  2.36D+00
 E= -3084.23270719282     Delta-E=       -0.000021405111 Rises=F Damp=F
 DIIS: error= 3.76D-05 at cycle  16 NSaved=  11.
 NSaved=11 IEnMin= 1 EnMin= -3084.23298760011     IErMin=11 ErrMin= 3.76D-05
 ErrMax= 3.76D-05  0.00D+00 EMaxC= 1.00D-01 BMatC= 2.24D-06 BMatP= 2.84D-06
 IDIUse=1 WtCom= 1.00D+00 WtEn= 0.00D+00
 Coeff-Com:  0.204D+01-0.138D+01-0.111D+01 0.671D+00 0.527D-01-0.845D+00
 Coeff-Com:  0.108D+01 0.106D+01-0.267D+01-0.157D+00 0.226D+01
 Coeff:      0.204D+01-0.138D+01-0.111D+01 0.671D+00 0.527D-01-0.845D+00
 Coeff:      0.108D+01 0.106D+01-0.267D+01-0.157D+00 0.226D+01
 Gap=     0.103 Goal=   None    Shift=    0.000
 Gap=     0.154 Goal=   None    Shift=    0.000
 RMSDP=1.83D-05 MaxDP=2.72D-03 DE=-2.14D-05 OVMax= 7.92D-03

 Cycle  45  Pass 1  IDiag  1:
 RMSU=  1.30D-05    CP:  1.00D+00 -3.00D+00 -3.00D+00 -3.00D+00 -3.00D+00
                    CP:  3.00D+00  3.00D+00  3.00D+00  3.00D+00  3.00D+00
                    CP:  3.00D+00  3.00D+00  2.21D+00  3.00D+00  3.00D+00
                    CP:  3.00D+00
 E= -3084.23273406439     Delta-E=       -0.000026871576 Rises=F Damp=F
 DIIS: error= 2.99D-05 at cycle  17 NSaved=  12.
 NSaved=12 IEnMin= 1 EnMin= -3084.23298760011     IErMin=12 ErrMin= 2.99D-05
 ErrMax= 2.99D-05  0.00D+00 EMaxC= 1.00D-01 BMatC= 1.63D-06 BMatP= 2.24D-06
 IDIUse=1 WtCom= 1.00D+00 WtEn= 0.00D+00
 Coeff-Com:  0.274D-03-0.448D-01 0.339D-01 0.297D-01 0.193D+00-0.320D+00
 Coeff-Com: -0.342D+00 0.899D+00 0.576D+00-0.162D+01-0.651D-01 0.166D+01
 Coeff:      0.274D-03-0.448D-01 0.339D-01 0.297D-01 0.193D+00-0.320D+00
 Coeff:     -0.342D+00 0.899D+00 0.576D+00-0.162D+01-0.651D-01 0.166D+01
 Gap=     0.103 Goal=   None    Shift=    0.000
 Gap=     0.154 Goal=   None    Shift=    0.000
 RMSDP=1.13D-05 MaxDP=1.58D-03 DE=-2.69D-05 OVMax= 4.56D-03

 Cycle  46  Pass 1  IDiag  1:
 RMSU=  4.16D-06    CP:  1.00D+00 -3.00D+00 -3.00D+00 -3.00D+00 -3.00D+00
                    CP:  3.00D+00  3.00D+00  3.00D+00  3.00D+00  3.00D+00
                    CP:  3.00D+00  3.00D+00  3.00D+00  3.00D+00  3.00D+00
                    CP:  3.00D+00  1.76D+00
 E= -3084.23274740682     Delta-E=       -0.000013342424 Rises=F Damp=F
 DIIS: error= 2.94D-05 at cycle  18 NSaved=  13.
 NSaved=13 IEnMin= 1 EnMin= -3084.23298760011     IErMin=13 ErrMin= 2.94D-05
 ErrMax= 2.94D-05  0.00D+00 EMaxC= 1.00D-01 BMatC= 1.28D-06 BMatP= 1.63D-06
 IDIUse=1 WtCom= 1.00D+00 WtEn= 0.00D+00
 Coeff-Com: -0.759D+00 0.507D+00 0.443D+00-0.413D+00 0.300D-02 0.614D+00
 Coeff-Com: -0.627D+00-0.715D+00 0.155D+01 0.919D-01-0.116D+01-0.220D+00
 Coeff-Com:  0.168D+01
 Coeff:     -0.759D+00 0.507D+00 0.443D+00-0.413D+00 0.300D-02 0.614D+00
 Coeff:     -0.627D+00-0.715D+00 0.155D+01 0.919D-01-0.116D+01-0.220D+00
 Coeff:      0.168D+01
 Gap=     0.103 Goal=   None    Shift=    0.000
 Gap=     0.154 Goal=   None    Shift=    0.000
 RMSDP=8.55D-06 MaxDP=1.32D-03 DE=-1.33D-05 OVMax= 3.53D-03

 Cycle  47  Pass 1  IDiag  1:
 RMSU=  2.08D-06    CP:  1.00D+00 -3.00D+00 -3.00D+00 -3.00D+00 -3.00D+00
                    CP:  3.00D+00  3.00D+00  3.00D+00  3.00D+00  3.00D+00
                    CP:  3.00D+00  3.00D+00  3.00D+00  3.00D+00  3.00D+00
                    CP:  3.00D+00  2.33D+00  1.91D+00
 E= -3084.23275700770     Delta-E=       -0.000009600884 Rises=F Damp=F
 DIIS: error= 2.84D-05 at cycle  19 NSaved=  14.
 NSaved=14 IEnMin= 1 EnMin= -3084.23298760011     IErMin=14 ErrMin= 2.84D-05
 ErrMax= 2.84D-05  0.00D+00 EMaxC= 1.00D-01 BMatC= 1.06D-06 BMatP= 1.28D-06
 IDIUse=1 WtCom= 1.00D+00 WtEn= 0.00D+00
 Coeff-Com: -0.815D+00 0.517D+00 0.499D+00-0.175D+00-0.292D+00 0.361D+00
 Coeff-Com:  0.444D+00-0.963D+00-0.633D+00 0.163D+01 0.179D+00-0.179D+01
 Coeff-Com: -0.513D+00 0.255D+01
 Coeff:     -0.815D+00 0.517D+00 0.499D+00-0.175D+00-0.292D+00 0.361D+00
 Coeff:      0.444D+00-0.963D+00-0.633D+00 0.163D+01 0.179D+00-0.179D+01
 Coeff:     -0.513D+00 0.255D+01
 Gap=     0.103 Goal=   None    Shift=    0.000
 Gap=     0.154 Goal=   None    Shift=    0.000
 RMSDP=1.53D-05 MaxDP=2.50D-03 DE=-9.60D-06 OVMax= 6.32D-03

 Cycle  48  Pass 1  IDiag  1:
 RMSU=  5.82D-06    CP:  1.00D+00 -3.00D+00 -3.00D+00 -3.00D+00 -3.00D+00
                    CP:  3.00D+00  3.00D+00  3.00D+00  3.00D+00  2.99D+00
                    CP:  3.00D+00  3.00D+00  3.00D+00  3.00D+00  3.00D+00
                    CP:  3.00D+00  3.00D+00  3.00D+00  2.56D+00
 E= -3084.23277138180     Delta-E=       -0.000014374100 Rises=F Damp=F
 DIIS: error= 2.34D-05 at cycle  20 NSaved=  15.
 NSaved=15 IEnMin= 1 EnMin= -3084.23298760011     IErMin=15 ErrMin= 2.34D-05
 ErrMax= 2.34D-05  0.00D+00 EMaxC= 1.00D-01 BMatC= 6.99D-07 BMatP= 1.06D-06
 IDIUse=1 WtCom= 1.00D+00 WtEn= 0.00D+00
 Coeff-Com: -0.135D+00 0.205D-01 0.126D+00 0.268D+00-0.678D-01-0.625D+00
 Coeff-Com:  0.616D+00 0.822D+00-0.127D+01-0.455D+00 0.105D+01 0.417D+00
 Coeff-Com: -0.178D+01 0.708D-01 0.194D+01
 Coeff:     -0.135D+00 0.205D-01 0.126D+00 0.268D+00-0.678D-01-0.625D+00
 Coeff:      0.616D+00 0.822D+00-0.127D+01-0.455D+00 0.105D+01 0.417D+00
 Coeff:     -0.178D+01 0.708D-01 0.194D+01
 Gap=     0.103 Goal=   None    Shift=    0.000
 Gap=     0.154 Goal=   None    Shift=    0.000
 RMSDP=1.60D-05 MaxDP=2.61D-03 DE=-1.44D-05 OVMax= 6.14D-03

 Cycle  49  Pass 1  IDiag  1:
 Restarting incremental Fock formation.
 E= -3084.23278160609     Delta-E=       -0.000010224290 Rises=F Damp=F
 DIIS: error= 1.56D-05 at cycle  21 NSaved=  16.
 NSaved=16 IEnMin= 1 EnMin= -3084.23298760011     IErMin=16 ErrMin= 1.56D-05
 ErrMax= 1.56D-05  0.00D+00 EMaxC= 1.00D-01 BMatC= 3.70D-07 BMatP= 6.99D-07
 IDIUse=1 WtCom= 1.00D+00 WtEn= 0.00D+00
 Coeff-Com:  0.422D+00-0.256D+00-0.258D+00 0.695D-01 0.182D+00-0.201D+00
 Coeff-Com: -0.378D+00 0.642D+00 0.712D+00-0.137D+01-0.193D+00 0.139D+01
 Coeff-Com:  0.499D+00-0.185D+01-0.139D+00 0.172D+01
 Coeff:      0.422D+00-0.256D+00-0.258D+00 0.695D-01 0.182D+00-0.201D+00
 Coeff:     -0.378D+00 0.642D+00 0.712D+00-0.137D+01-0.193D+00 0.139D+01
 Coeff:      0.499D+00-0.185D+01-0.139D+00 0.172D+01
 Gap=     0.103 Goal=   None    Shift=    0.000
 Gap=     0.154 Goal=   None    Shift=    0.000
 RMSDP=1.06D-05 MaxDP=1.70D-03 DE=-1.02D-05 OVMax= 3.84D-03

 Cycle  50  Pass 1  IDiag  1:
 RMSU=  1.06D-05    CP:  1.00D+00
 E= -3084.23278585247     Delta-E=       -0.000004246378 Rises=F Damp=F
 DIIS: error= 9.67D-06 at cycle  22 NSaved=  17.
 NSaved=17 IEnMin= 1 EnMin= -3084.23298760011     IErMin=17 ErrMin= 9.67D-06
 ErrMax= 9.67D-06  0.00D+00 EMaxC= 1.00D-01 BMatC= 1.97D-07 BMatP= 3.70D-07
 IDIUse=1 WtCom= 1.00D+00 WtEn= 0.00D+00
 Coeff-Com: -0.135D+00 0.119D+00 0.480D-01-0.153D+00-0.928D-02 0.342D+00
 Coeff-Com: -0.327D+00-0.495D+00 0.808D+00 0.208D+00-0.592D+00-0.360D+00
 Coeff-Com:  0.989D+00 0.157D+00-0.110D+01-0.688D-01 0.157D+01
 Coeff:     -0.135D+00 0.119D+00 0.480D-01-0.153D+00-0.928D-02 0.342D+00
 Coeff:     -0.327D+00-0.495D+00 0.808D+00 0.208D+00-0.592D+00-0.360D+00
 Coeff:      0.989D+00 0.157D+00-0.110D+01-0.688D-01 0.157D+01
 Gap=     0.103 Goal=   None    Shift=    0.000
 Gap=     0.154 Goal=   None    Shift=    0.000
 RMSDP=6.18D-06 MaxDP=1.01D-03 DE=-4.25D-06 OVMax= 2.27D-03

 Cycle  51  Pass 1  IDiag  1:
 RMSU=  1.48D-06    CP:  1.00D+00  1.56D+00
 E= -3084.23278754490     Delta-E=       -0.000001692430 Rises=F Damp=F
 DIIS: error= 8.67D-06 at cycle  23 NSaved=  18.
 NSaved=18 IEnMin= 1 EnMin= -3084.23298760011     IErMin=18 ErrMin= 8.67D-06
 ErrMax= 8.67D-06  0.00D+00 EMaxC= 1.00D-01 BMatC= 1.02D-07 BMatP= 1.97D-07
 IDIUse=1 WtCom= 1.00D+00 WtEn= 0.00D+00
 Coeff-Com: -0.384D+00 0.249D+00 0.210D+00-0.655D-01-0.902D-01 0.800D-01
 Coeff-Com:  0.242D+00-0.296D+00-0.410D+00 0.640D+00 0.164D+00-0.703D+00
 Coeff-Com: -0.333D+00 0.103D+01 0.638D-01-0.929D+00-0.172D+00 0.171D+01
 Coeff:     -0.384D+00 0.249D+00 0.210D+00-0.655D-01-0.902D-01 0.800D-01
 Coeff:      0.242D+00-0.296D+00-0.410D+00 0.640D+00 0.164D+00-0.703D+00
 Coeff:     -0.333D+00 0.103D+01 0.638D-01-0.929D+00-0.172D+00 0.171D+01
 Gap=     0.103 Goal=   None    Shift=    0.000
 Gap=     0.154 Goal=   None    Shift=    0.000
 RMSDP=4.05D-06 MaxDP=6.13D-04 DE=-1.69D-06 OVMax= 1.59D-03

 Cycle  52  Pass 1  IDiag  1:
 RMSU=  7.79D-07    CP:  1.00D+00  1.92D+00  1.87D+00
 E= -3084.23278830196     Delta-E=       -0.000000757060 Rises=F Damp=F
 DIIS: error= 7.97D-06 at cycle  24 NSaved=  19.
 NSaved=19 IEnMin= 1 EnMin= -3084.23298760011     IErMin=19 ErrMin= 7.97D-06
 ErrMax= 7.97D-06  0.00D+00 EMaxC= 1.00D-01 BMatC= 5.06D-08 BMatP= 1.02D-07
 IDIUse=1 WtCom= 1.00D+00 WtEn= 0.00D+00
 Coeff-Com: -0.238D+00 0.153D+00 0.127D+00 0.137D-01 0.701D-02-0.191D+00
 Coeff-Com:  0.190D+00 0.297D+00-0.432D+00-0.161D+00 0.288D+00 0.255D+00
 Coeff-Com: -0.520D+00-0.779D-01 0.492D+00 0.832D-01-0.733D+00-0.950D-01
 Coeff-Com:  0.154D+01
 Coeff:     -0.238D+00 0.153D+00 0.127D+00 0.137D-01 0.701D-02-0.191D+00
 Coeff:      0.190D+00 0.297D+00-0.432D+00-0.161D+00 0.288D+00 0.255D+00
 Coeff:     -0.520D+00-0.779D-01 0.492D+00 0.832D-01-0.733D+00-0.950D-01
 Coeff:      0.154D+01
 Gap=     0.103 Goal=   None    Shift=    0.000
 Gap=     0.153 Goal=   None    Shift=    0.000
 RMSDP=2.84D-06 MaxDP=4.05D-04 DE=-7.57D-07 OVMax= 1.07D-03

 Cycle  53  Pass 1  IDiag  1:
 RMSU=  3.40D-07    CP:  1.00D+00  2.16D+00  2.48D+00  1.71D+00
 E= -3084.23278860153     Delta-E=       -0.000000299573 Rises=F Damp=F
 DIIS: error= 7.41D-06 at cycle  25 NSaved=  20.
 NSaved=20 IEnMin= 1 EnMin= -3084.23298760011     IErMin=20 ErrMin= 7.41D-06
 ErrMax= 7.41D-06  0.00D+00 EMaxC= 1.00D-01 BMatC= 2.59D-08 BMatP= 5.06D-08
 IDIUse=1 WtCom= 1.00D+00 WtEn= 0.00D+00
 Coeff-Com: -0.327D+00 0.216D+00 0.173D+00-0.441D-01 0.216D-02-0.439D-01
 Coeff-Com: -0.563D-01 0.118D+00 0.118D+00-0.194D+00-0.879D-01 0.257D+00
 Coeff-Com:  0.553D-01-0.272D+00-0.202D-01 0.266D+00 0.702D-01-0.604D+00
 Coeff-Com:  0.487D-01 0.132D+01
 Coeff:     -0.327D+00 0.216D+00 0.173D+00-0.441D-01 0.216D-02-0.439D-01
 Coeff:     -0.563D-01 0.118D+00 0.118D+00-0.194D+00-0.879D-01 0.257D+00
 Coeff:      0.553D-01-0.272D+00-0.202D-01 0.266D+00 0.702D-01-0.604D+00
 Coeff:      0.487D-01 0.132D+01
[...]
 **** Fit       0.049442
 **** Fit       0.048062
 **** Fit       0.047246
 **** Fit       0.046971
 **** Fit       0.047228
 **** Fit       0.047996
 **** Fit       0.049213
 **** Fit       0.050761
 **** Fit       0.054019
 **** Fit       0.053572
 **** Fit       0.051016
 **** Fit       0.049136
 **** Fit       0.047827
 **** Fit       0.047036
 **** Fit       0.046747
 **** Fit       0.046963
 **** Fit       0.047692
 **** Fit       0.048904
 **** Fit       0.050497
 **** Fit       0.052276
 **** Fit       0.050110
 **** Fit       0.048494
 **** Fit       0.047436
 **** Fit       0.046905
 **** Fit       0.046909
 **** Fit       0.047480
 **** Fit       0.048650
 **** Fit       0.050391
 **** Fit       0.052549
 **** Fit       0.054783
 **** Fit       0.049633
 **** Fit       0.048305
 **** Fit       0.047521
 **** Fit       0.047283
 **** Fit       0.047632
 **** Fit       0.048642
 **** Fit       0.050385
 **** Fit       0.052866
 **** Fit       0.055901
 **** Fit       0.048236
 **** Fit       0.048193
 **** Fit       0.048828
 **** Fit       0.050270
 **** Fit       0.052676
 **** Fit       0.056168
 **** Fit       0.051871
 **** Fit       0.054814
 **** Fit       0.048116
 **** Fit       0.048239
 **** Fit       0.049118
 **** Fit       0.050993
 **** Fit       0.054255
 **** Fit       0.049266
 **** Fit       0.048046
 **** Fit       0.047282
 **** Fit       0.047002
 **** Fit       0.047284
 **** Fit       0.048271
 **** Fit       0.050194
 **** Fit       0.053412
 **** Fit       0.050173
 **** Fit       0.048609
 **** Fit       0.047440
 **** Fit       0.046672
 **** Fit       0.046339
 **** Fit       0.046513
 **** Fit       0.047319
 **** Fit       0.048951
 **** Fit       0.051687
 **** Fit       0.055916
 **** Fit       0.050217
 **** Fit       0.048667
 **** Fit       0.047441
 **** Fit       0.046567
 **** Fit       0.046083
 **** Fit       0.046050
 **** Fit       0.046569
 **** Fit       0.047789
 **** Fit       0.049910
 **** Fit       0.053169
 **** Fit       0.050430
 **** Fit       0.048959
 **** Fit       0.047727
 **** Fit       0.046788
 **** Fit       0.046187
 **** Fit       0.045981
 **** Fit       0.046249
 **** Fit       0.047103
 **** Fit       0.048678
 **** Fit       0.051106
 **** Fit       0.054440
 **** Fit       0.052133
 **** Fit       0.050565
 **** Fit       0.049127
 **** Fit       0.047906
 **** Fit       0.046976
 **** Fit       0.046400
 **** Fit       0.046252
 **** Fit       0.046622
 **** Fit       0.047620
 **** Fit       0.049345
 **** Fit       0.051822
 **** Fit       0.054884
 **** Fit       0.055373
 **** Fit       0.057954
 **** Fit       0.052786
 **** Fit       0.051127
 **** Fit       0.049648
 **** Fit       0.048400
 **** Fit       0.047459
 **** Fit       0.046903
 **** Fit       0.046821
 **** Fit       0.047309
 **** Fit       0.048456
 **** Fit       0.050293
 **** Fit       0.052704
 **** Fit       0.053823
 **** Fit       0.056377
 **** Fit       0.058874
 **** Fit       0.060953
 **** Fit       0.055148
 **** Fit       0.053059
 **** Fit       0.051239
 **** Fit       0.049711
 **** Fit       0.048536
 **** Fit       0.047813
 **** Fit       0.047656
 **** Fit       0.048177
 **** Fit       0.049448
 **** Fit       0.051411
 **** Fit       0.052952
 **** Fit       0.055455
 **** Fit       0.057426
 **** Fit       0.057976
 **** Fit       0.056889
 **** Fit       0.054850
 **** Fit       0.052643
 **** Fit       0.050739
 **** Fit       0.049389
 **** Fit       0.048816
 **** Fit       0.049226
 **** Fit       0.050687
 **** Fit       0.052508
 **** Fit       0.054586
 **** Fit       0.054447
 **** Fit       0.052407
 **** Fit       0.050642
 **** Fit       0.050613
 **** Fit       0.052351
 **** Fit       0.067009
 **** Fit       0.065712
 **** Fit       0.063518
 **** Fit       0.062398
 **** Fit       0.066682
 **** Fit       0.063768
 **** Fit       0.061958
 **** Fit       0.061140
 **** Fit       0.064464
 **** Fit       0.062124
 **** Fit       0.060742
 **** Fit       0.060191
 **** Fit       0.060442
 **** Fit       0.066724
 **** Fit       0.063394
 **** Fit       0.061244
 **** Fit       0.059994
 **** Fit       0.059516
 **** Fit       0.059776
 **** Fit       0.065208
 **** Fit       0.062340
 **** Fit       0.060486
 **** Fit       0.059421
 **** Fit       0.059044
 **** Fit       0.059330
 **** Fit       0.065950
 **** Fit       0.062840
 **** Fit       0.060762
 **** Fit       0.059469
 **** Fit       0.058839
 **** Fit       0.058826
 **** Fit       0.059445
 **** Fit       0.064225
 **** Fit       0.061665
 **** Fit       0.059971
 **** Fit       0.058984
 **** Fit       0.058633
 **** Fit       0.058909
 **** Fit       0.064513
 **** Fit       0.061917
 **** Fit       0.060145
 **** Fit       0.059081
 **** Fit       0.058668
 **** Fit       0.058910
 **** Fit       0.064422
 **** Fit       0.062068
 **** Fit       0.060360
 **** Fit       0.059291
 **** Fit       0.058855
 **** Fit       0.059078
 **** Fit       0.062790
 **** Fit       0.061031
 **** Fit       0.059811
 **** Fit       0.059229
 **** Fit       0.059360
 **** Fit       0.063145
 **** Fit       0.061709
 **** Fit       0.060483
 **** Fit       0.059794
 **** Fit       0.059825
 **** Fit       0.062019
 **** Fit       0.060993
 **** Fit       0.060453
 **** Fit       0.062515
 **** Fit       0.061618
 **** Fit       0.063824
 **** Fit       0.065565
 **** Fit       0.063745
 **** Fit       0.062265
 **** Fit       0.062498
 **** Fit       0.064306
 **** Fit       0.065892
 **** Fit       0.067796
 **** Fit       0.066067
 **** Fit       0.064128
 **** Fit       0.062385
 **** Fit       0.061188
 **** Fit       0.060854
 **** Fit       0.061522
 **** Fit       0.063084
 **** Fit       0.065166
 **** Fit       0.067175
 **** Fit       0.068504
 **** Fit       0.068739
 **** Fit       0.070575
 **** Fit       0.068815
 **** Fit       0.066923
 **** Fit       0.065067
 **** Fit       0.063302
 **** Fit       0.061745
 **** Fit       0.060585
 **** Fit       0.059993
 **** Fit       0.060070
 **** Fit       0.060839
 **** Fit       0.062253
 **** Fit       0.064184
 **** Fit       0.066407
 **** Fit       0.068607
 **** Fit       0.070449
 **** Fit       0.071693
 **** Fit       0.072197
 **** Fit       0.071818
 **** Fit       0.064601
 **** Fit       0.062833
 **** Fit       0.061284
 **** Fit       0.060129
 **** Fit       0.059486
 **** Fit       0.059416
 **** Fit       0.059934
 **** Fit       0.061032
 **** Fit       0.062673
 **** Fit       0.064781
 **** Fit       0.067213
 **** Fit       0.069748
 **** Fit       0.072102
 **** Fit       0.073997
 **** Fit       0.075315
 **** Fit       0.062428
 **** Fit       0.060848
 **** Fit       0.059746
 **** Fit       0.059184
 **** Fit       0.059180
 **** Fit       0.059734
 **** Fit       0.060841
 **** Fit       0.062489
 **** Fit       0.064652
 **** Fit       0.067261
 **** Fit       0.070180
 **** Fit       0.073186
 **** Fit       0.075952
 **** Fit       0.060787
 **** Fit       0.059718
 **** Fit       0.059200
 **** Fit       0.059225
 **** Fit       0.059780
 **** Fit       0.060861
 **** Fit       0.062475
 **** Fit       0.064630
 **** Fit       0.067319
 **** Fit       0.070496
 **** Fit       0.074049
 **** Fit       0.060209
 **** Fit       0.059572
 **** Fit       0.059530
 **** Fit       0.060057
 **** Fit       0.061148
 **** Fit       0.062820
 **** Fit       0.065109
 **** Fit       0.068060
 **** Fit       0.071704
 **** Fit       0.076044
 **** Fit       0.060154
 **** Fit       0.060627
 **** Fit       0.061688
 **** Fit       0.063360
 **** Fit       0.065699
 **** Fit       0.068794
 **** Fit       0.072764
 **** Fit       0.077755
 **** Fit       0.061963
 **** Fit       0.063309
 **** Fit       0.065340
 **** Fit       0.068150
 **** Fit       0.071898
 **** Fit       0.076822
 **** Fit       0.079232
 **** Fit       0.065154
 **** Fit       0.067654
 **** Fit       0.071137
 **** Fit       0.075841
 **** Fit       0.082104
 **** Fit       0.061734
 **** Fit       0.062965
 **** Fit       0.064871
 **** Fit       0.067528
 **** Fit       0.071054
 **** Fit       0.075609
 **** Fit       0.081343
 **** Fit       0.060154
 **** Fit       0.060471
 **** Fit       0.061396
 **** Fit       0.062928
 **** Fit       0.065099
 **** Fit       0.067970
 **** Fit       0.071608
 **** Fit       0.076044
 **** Fit       0.081148
 **** Fit       0.059757
 **** Fit       0.059501
 **** Fit       0.059862
 **** Fit       0.060803
 **** Fit       0.062314
 **** Fit       0.064409
 **** Fit       0.067107
 **** Fit       0.070401
 **** Fit       0.074198
 **** Fit       0.078212
 **** Fit       0.059295
 **** Fit       0.059124
 **** Fit       0.059514
 **** Fit       0.060438
 **** Fit       0.061882
 **** Fit       0.063834
 **** Fit       0.066272
 **** Fit       0.069124
 **** Fit       0.072226
 **** Fit       0.075277
 **** Fit       0.077885
 **** Fit       0.059939
 **** Fit       0.059181
 **** Fit       0.058998
 **** Fit       0.059387
 **** Fit       0.060328
 **** Fit       0.061793
 **** Fit       0.063742
 **** Fit       0.066097
 **** Fit       0.068708
 **** Fit       0.071334
 **** Fit       0.073686
 **** Fit       0.075572
 **** Fit       0.060127
 **** Fit       0.059361
 **** Fit       0.059142
 **** Fit       0.059504
 **** Fit       0.060436
 **** Fit       0.061892
 **** Fit       0.063790
 **** Fit       0.065988
 **** Fit       0.068274
 **** Fit       0.070404
 **** Fit       0.072203
 **** Fit       0.073642
 **** Fit       0.074714
 **** Fit       0.061536
 **** Fit       0.060374
 **** Fit       0.059699
 **** Fit       0.059645
 **** Fit       0.060257
 **** Fit       0.061494
 **** Fit       0.063231
 **** Fit       0.065258
 **** Fit       0.067294
 **** Fit       0.069072
 **** Fit       0.070415
 **** Fit       0.071158
 **** Fit       0.071069
 **** Fit       0.067230
 **** Fit       0.065637
 **** Fit       0.063742
 **** Fit       0.062025
 **** Fit       0.060809
 **** Fit       0.060376
 **** Fit       0.060888
 **** Fit       0.062268
 **** Fit       0.064177
 **** Fit       0.066093
 **** Fit       0.067487
 **** Fit       0.067938
 **** Fit       0.064943
 **** Fit       0.063244
 **** Fit       0.061746
 **** Fit       0.061839
 **** Fit       0.063483
 **** Fit       0.065076
 **** Fit       0.063168
 **** Fit       0.035819
 **** Fit       0.040256
 **** Fit       0.045364
 **** Fit       0.051307
 **** Fit       0.058294
 **** Fit       0.029102
 **** Fit       0.032734
 **** Fit       0.036873
 **** Fit       0.041601
 **** Fit       0.047059
 **** Fit       0.053446
 **** Fit       0.027323
 **** Fit       0.030850
 **** Fit       0.034859
 **** Fit       0.039414
 **** Fit       0.044633
 **** Fit       0.050689
 **** Fit       0.057814
 **** Fit       0.023159
 **** Fit       0.025987
 **** Fit       0.029300
 **** Fit       0.033079
 **** Fit       0.037354
 **** Fit       0.042203
 **** Fit       0.047746
 **** Fit       0.054131
 **** Fit       0.021383
 **** Fit       0.023416
 **** Fit       0.026156
 **** Fit       0.029490
 **** Fit       0.033368
 **** Fit       0.037795
 **** Fit       0.042823
 **** Fit       0.048523
 **** Fit       0.054951
 **** Fit       0.023185
 **** Fit       0.024520
 **** Fit       0.026867
 **** Fit       0.030021
 **** Fit       0.033855
 **** Fit       0.038308
 **** Fit       0.043361
 **** Fit       0.048970
 **** Fit       0.054977
 **** Fit       0.060925
 **** Fit       0.068071
 **** Fit       0.026854
 **** Fit       0.026935
 **** Fit       0.028626
 **** Fit       0.031573
 **** Fit       0.035496
 **** Fit       0.040189
 **** Fit       0.045441
 **** Fit       0.050887
 **** Fit       0.055813
 **** Fit       0.059131
 **** Fit       0.059972
 **** Fit       0.058376
 **** Fit       0.054881
 **** Fit       0.049920
 **** Fit       0.043980
 **** Fit       0.037857
 **** Fit       0.032494
 **** Fit       0.028691
 **** Fit       0.031085
 **** Fit       0.031428
 **** Fit       0.034143
 **** Fit       0.038526
 **** Fit       0.043803
 **** Fit       0.048891
 **** Fit       0.052221
 **** Fit       0.052463
 **** Fit       0.049551
 **** Fit       0.044390
 **** Fit       0.038450
 **** Fit       0.033550
 **** Fit       0.035717
 **** Fit       0.037181
 **** Fit       0.042208
 **** Fit       0.046181
 **** Fit       0.044839
 **** Fit       0.039446
 **** Fit       0.040730
 **** Fit      -0.002559
 **** Fit      -0.009457
 **** Fit      -0.002581
 **** Fit       0.004307
 **** Fit      -0.020854
 **** Fit      -0.014488
 **** Fit      -0.007472
 **** Fit      -0.000582
 **** Fit       0.005984
 **** Fit      -0.024105
 **** Fit      -0.017991
 **** Fit      -0.011164
 **** Fit      -0.004448
 **** Fit       0.001894
 **** Fit       0.007884
 **** Fit      -0.019073
 **** Fit      -0.012339
 **** Fit      -0.005702
 **** Fit       0.000552
 **** Fit       0.006419
 **** Fit       0.012028
 **** Fit      -0.018798
 **** Fit      -0.012482
 **** Fit      -0.006198
 **** Fit      -0.000236
 **** Fit       0.005371
 **** Fit       0.010714
 **** Fit      -0.016997
 **** Fit      -0.011173
 **** Fit      -0.005317
 **** Fit       0.000298
 **** Fit       0.005623
 **** Fit       0.010727
 **** Fit       0.015737
 **** Fit      -0.013652
 **** Fit      -0.008209
 **** Fit      -0.002684
 **** Fit       0.002673
 **** Fit       0.007823
 **** Fit       0.012836
 **** Fit      -0.009387
 **** Fit      -0.004347
 **** Fit       0.000850
 **** Fit       0.005981
 **** Fit       0.011018
 **** Fit       0.016045
 **** Fit      -0.004751
 **** Fit      -0.000233
 **** Fit       0.004557
 **** Fit       0.009417
 **** Fit       0.014330
 **** Fit       0.000646
 **** Fit       0.004986
 **** Fit       0.009723
 **** Fit       0.014706
 **** Fit       0.002920
 **** Fit       0.006202
 **** Fit       0.010439
 **** Fit       0.008995
 **** Fit       0.012397
 **** Fit       0.030120
 **** Fit       0.024830
 **** Fit       0.026614
 **** Fit       0.031637
 **** Fit       0.035424
 **** Fit       0.034381
 **** Fit       0.028817
 **** Fit       0.019677
 **** Fit       0.020503
 **** Fit       0.023834
 **** Fit       0.028410
 **** Fit       0.033266
 **** Fit       0.037632
 **** Fit       0.040694
 **** Fit       0.041540
 **** Fit       0.039431
 **** Fit       0.034405
 **** Fit       0.027881
 **** Fit       0.022298
 **** Fit       0.014894
 **** Fit       0.015539
 **** Fit       0.018085
 **** Fit       0.021760
 **** Fit       0.026004
 **** Fit       0.030477
 **** Fit       0.034948
 **** Fit       0.039205
 **** Fit       0.042983
 **** Fit       0.045930
 **** Fit       0.047594
 **** Fit       0.047507
 **** Fit       0.045289
 **** Fit       0.040813
 **** Fit       0.034513
 **** Fit       0.016796
 **** Fit       0.011525
 **** Fit       0.013849
 **** Fit       0.017175
 **** Fit       0.021041
 **** Fit       0.025182
 **** Fit       0.029457
 **** Fit       0.033784
 **** Fit       0.038086
 **** Fit       0.042267
 **** Fit       0.046195
 **** Fit       0.049674
 **** Fit       0.052416
 **** Fit       0.054067
 **** Fit       0.054305
 **** Fit       0.052848
 **** Fit       0.014108
 **** Fit       0.017734
 **** Fit       0.021636
 **** Fit       0.025698
 **** Fit       0.029865
 **** Fit       0.034108
 **** Fit       0.038399
 **** Fit       0.042693
 **** Fit       0.046918
 **** Fit       0.050985
 **** Fit       0.054749
 **** Fit       0.057943
 **** Fit       0.019006
 **** Fit       0.022698
 **** Fit       0.026538
 **** Fit       0.030501
 **** Fit       0.034581
 **** Fit       0.038770
 **** Fit       0.043042
 **** Fit       0.047353
 **** Fit       0.051649
 **** Fit       0.055888
 **** Fit       0.059980
 **** Fit       0.021948
 **** Fit       0.025594
 **** Fit       0.029435
 **** Fit       0.033459
 **** Fit       0.037667
 **** Fit       0.042053
 **** Fit       0.046584
 **** Fit       0.051204
 **** Fit       0.055872
 **** Fit       0.060618
 **** Fit       0.025206
 **** Fit       0.028762
 **** Fit       0.032579
 **** Fit       0.036655
 **** Fit       0.040996
 **** Fit       0.045593
 **** Fit       0.050406
 **** Fit       0.055367
 **** Fit       0.060466
 **** Fit       0.033059
 **** Fit       0.037060
 **** Fit       0.041423
 **** Fit       0.046160
 **** Fit       0.051257
 **** Fit       0.056662
 **** Fit       0.044930
 **** Fit       0.050294
 **** Fit       0.056235
 -----------------------------------------------------------------
 Leave Link  602 at Thu Aug 19 19:53:33 2021, MaxMem=    33554432 cpu:        21.6
 (Enter /home/wendao/install/g09/l9999.exe)

 Test job not archived.
 1\1\GINC-MERCURY\SP\UHF\6-31G(d)\C34H30Fe1N4O4(3)\WENDAO\19-Aug-2021\0
 \\#p HF/6-31G* SCF Pop=(mk,readradii) iop(6/33=2) iop(6/42=6) iop(6/50
 =1)\\HEM\\0,3\C,0,80.29643,171.29561,78.16469\C,0,83.09152,172.59377,8
 7.51848\C,0,83.33409,164.73983,86.2316\C,0,80.45132,165.92346,78.82975
 \N,0,81.44484,170.50105,81.6112\C,0,81.3,171.1984,77.06026\C,0,82.6465
 8,173.65282,88.18689\C,0,83.70136,163.80899,85.37556\C,0,78.9573,166.0
 2523,78.63362\N,0,82.3426,170.89372,84.32302\C,0,80.68341,171.322,75.6
 9463\C,0,78.49224,165.61596,77.27019\N,0,81.64624,167.66258,81.93196\C
 ,0,80.98091,168.87182,79.8798\C,0,81.84792,172.64566,82.65426\C,0,82.9
 5388,169.76938,86.34528\C,0,82.28166,165.90552,83.41385\C,0,80.90397,1
 73.80664,80.0017\C,0,82.35824,174.54469,85.1537\C,0,83.69671,167.22013
 ,88.08595\C,0,81.34556,164.06987,81.21553\C,0,81.08066,170.13373,80.34
 65\C,0,82.20554,172.19307,83.97991\C,0,82.9157,168.37748,85.88174\C,0,
 81.80377,166.36826,82.25577\O,0,79.48658,171.14521,75.52807\O,0,77.359
 19,165.1874,77.11141\C,0,80.83661,171.2659,79.57094\C,0,82.43674,173.0
 353,85.08016\C,0,83.24674,167.25054,86.6516\C,0,81.38974,165.55049,81.
 20752\O,0,81.44642,171.71669,74.65925\O,0,79.28673,165.8086,76.20437\C
 ,0,81.07313,172.36178,80.38167\C,0,82.75778,172.20274,86.12426\C,0,83.
 09799,166.15861,85.82689\C,0,80.98434,166.36954,80.18631\C,0,81.47099,
 171.8645,81.62035\C,0,82.71024,170.88488,85.62049\C,0,82.65544,166.677
 48,84.59163\C,0,81.1921,167.67071,80.65717\N,0,82.54671,168.01639,84.6
 471\Fe,0,81.99645,169.26962,83.13321\H,0,79.72422,172.20199,77.99962\H
 ,0,79.59207,170.48447,78.03956\H,0,83.72316,171.95674,88.06383\H,0,83.
 24355,164.42765,87.25503\H,0,80.93061,166.50625,78.06088\H,0,80.72034,
 164.89517,78.6182\H,0,81.82952,170.26121,77.14395\H,0,82.03217,171.984
 95,77.20667\H,0,82.9444,173.82719,89.19977\H,0,81.95462,174.33541,87.8
 0059\H,0,83.87303,162.7996,85.66596\H,0,83.89083,164.04265,84.37719\H,
 0,78.46755,165.3968,79.36333\H,0,78.64884,167.03968,78.82684\H,0,80.77
 918,168.69551,78.83936\H,0,81.93108,173.70318,82.53361\H,0,83.20334,16
 9.8739,87.37344\H,0,82.37133,164.86991,83.49774\H,0,81.53397,174.09697
 ,79.16763\H,0,81.15477,174.47415,80.81454\H,0,79.87918,174.05654,79.72
 674\H,0,82.60702,174.96739,86.1073\H,0,81.36893,174.92895,84.93377\H,0
 ,83.05458,175.04852,84.50457\H,0,83.90994,166.21821,88.45583\H,0,82.94
 325,167.62772,88.7504\H,0,84.60243,167.79479,88.25168\H,0,82.32945,163
 .66035,81.38573\H,0,80.97466,163.65365,80.29122\H,0,80.69261,163.70847
 ,82.00481\\Version=ES64L-G09RevD.01\State=3-A\HF=-3084.2327892\S2=4.44
 5033\S2-1=0.\S2A=8.192661\RMSD=2.094e-09\Dipole=8.0115403,1.5396254,23
 .6224345\Quadrupole=30.5665228,92.2847256,-122.8512484,-37.4954177,-54
 .4818465,-7.3572089\PG=C01 [X(C34H30Fe1N4O4)]\\@


 CHARLIE BROWN -- WHICH DO YOU THINK LASTS LONGER IN LIFE, THE GOOD THINGS 
                  OR THE BAD THINGS?
 LINUS --         GOOD THINGS LAST EIGHT SECONDS ..
                  BAD THINGS LAST THREE WEEKS
 CHARLIE BROWN -- WHAT ABOUT IN BETWEEN?
 SNOOPY --        IN BETWEEN YOU SHOULD TAKE A NAP ...
 Job cpu time:       0 days  4 hours 15 minutes  7.2 seconds.
 File lengths (MBytes):  RWF=    494 Int=      0 D2E=      0 Chk=     25 Scr=      1
 Normal termination of Gaussian 09 at Thu Aug 19 19:53:33 2021.
